
 *******************************************************************************
 *                                                                             *
 *  -------------------------------------                                      *
 *   Amsterdam Density Functional  (ADF)         2013.01   April 2, 2013       *
 *  -------------------------------------                                      *
 *                                               Build 201304112106            *
 *                                                                             *
 *                                                                             *
 *                            =====================                            *
 *                            |                   |                            *
 *                            |     D I R A C     |                            *
 *                            |                   |                            *
 *                            =====================                            *
 *                                                                             *
 *                                                                             *
 *   Online information and documentation:  http://www.scm.com                 *
 *   E-mail:  support@scm.com   info@scm.com                                   *
 *                                                                             *
 *   Scientific publications using ADF results must be properly referenced     *
 *   See the User Manuals (or the web site) for recommended citations          *
 *   The terms and conditions of the End User License Agreement apply to       *
 *   the use of ADF, http://www.scm.com/Sales/LicAgreement.html                *
 *                                                                             *
 ****************************  x86_64_linux_intel  *****************************
 
 Licensed to: Prof. Cacier Hadad / University of Antioquia / Medellin / COLOMBIA
 SCM User ID: u15319
  
 DIRAC 2013.01  RunTime: Jan01-2013 00:00:00  Nodes: 1  Procs: 1

 Temporary files are created in /tmp/kid_0.srlA5q

1
 HYDROGEN ATOM RELATIVISTIC, Point Nuc, A and c from libtc   
 N J RN H ZN XION ANUC CLIGHT
 5000    1100.00000000197.36710137  1.00000000  0.00000000    1.007825  0.1370360E+03
  PH   PHI     EPS        DEL        DELRVR
  0.30  0.30     2500.00  0.00001000  0.00001000
 IDIRC  NC1  NDEBU NPRIN  IPUN IRCOR IWCOR
   1   300     0     0     0     0     0
   XALPHA      XLATTER      RNUC
  0.70000000  0.00000000  0.00000000 Point Charge
   XN   XL   XJ      XE          XZ      XDELL
  1.0  0.0  0.5      -1.000       1.000     0.00000
 ICORP=  0  NPCL=  0  DEMP=0.00  PEPS=0.000000
 R(1)=  0.1000000E-08 D=  0.1005080E+01 RNUC=  0.0000000E+00
 converged at cycle   32  DENSITY AVERAGING    0.2400
  MAXIMUM ERROR IN R.V(R) IS   0.79874357E-05
 Q,EY,EV,EZ,ESUM,ETOT,RHO  0.100000E+01 -0.266614E+00 -0.619969E+00 -0.910779E+00 -0.203940E+00 -0.415998E+00  0.337036E-17


 DIRAC CALCULATION
1                    HYDROGEN ATOM RELATIVISTIC, Point Nuc, A and c from libtc


 EXCHANGE COEFFICIENT=  0.7000000           TAIL CORRECTION=  0.           NUCLEAR RADIUS=  0.000E+00
0                       ORBITAL    N    L    J     ELECTRONS     EIGENVALUE                DELTA OF EIGENV.

                          1S1/2  1.0  0.0  0.5     1.000       -0.2039397E+00                 0.2720093E-06


                                        NUCLEAR CHARGE=    1.000000
                            INTEGRAL OF CHARGE DENSITY=    1.000000
                           SUM OF THE ORBITAL ENERGIES=     -0.2039
                                          TOTAL ENERGY=     -0.4160
                                        KINETIC ENERGY=      0.4160
                             NUCLEAR ATTRACTION ENERGY=     -0.9108
                             ELECTRON REPULSION ENERGY=      0.2787
                                       EXCHANGE ENERGY=     -0.2000

 *******************************************************************************

                             D I R A C   E X I T
 NORMAL TERMINATION



 =================
 Timing Statistics
 =================
  
 Total Used :                     CPU=        0.08      System=        0.01     Elapsed=        0.09

 Calls  Section                     ( Mean, Percentage )
 ---------------------------------------------------------------------------------------------------
     2  ><      ................      0.00    0.01             0.00    0.04             0.00    0.01
     1  EXIT PROCEDURE .........      0.08   99.99             0.01   99.96             0.09   99.99


 Currently Open Files (EXIT00)
 ====================

 Unit    Access Format  Status   Type       Ident (file)
 -------------------------------------------------------
   3      SEQ    FORM   TRANSP  NORMAL      LOGFILE
                                          ( logfile )


 Buffered I/O statistics
 =======================
 Memory available:                     67108864
 Number of records fitting in memory:     16131
 Input : 100.0% of                            0  *4k bytes
 Output: 100.0% of                            0  *4k bytes
 Records from serial files evicted:           0
                    others evicted:           0
 Hash table lookups:          0 with          0 conflicts (100.00%)
(INPUT FILE)
Create H   file=/home/danian/Documents/programas/adf2013.01/atomicdata/ZORA/TZP/H
 XC
 GGA PBE
End
relativistic ZORA
Corepotentials t12.rel
End Input

 *******************************************************************************
 *                                                                             *
 *  -------------------------------------                                      *
 *   Amsterdam Density Functional  (ADF)         2013.01   April 2, 2013       *
 *  -------------------------------------                                      *
 *                                               Build 201304112215            *
 *                                                                             *
 *                                                                             *
 *                              =================                              *
 *                              |               |                              *
 *                              |     A D F     |                              *
 *                              |               |                              *
 *                              =================                              *
 *                                                                             *
 *                                                                             *
 *   Online information and documentation:  http://www.scm.com                 *
 *   E-mail:  support@scm.com   info@scm.com                                   *
 *                                                                             *
 *   Scientific publications using ADF results must be properly referenced     *
 *   See the User Manuals (or the web site) for recommended citations          *
 *   The terms and conditions of the End User License Agreement apply to       *
 *   the use of ADF, http://www.scm.com/Sales/LicAgreement.html                *
 *                                                                             *
 ********************  x86_64_linux_intel / platform_mpi  **********************
 
 Licensed to: Prof. Cacier Hadad / University of Antioquia / Medellin / COLOMBIA
 SCM User ID: u15319
  
 ADF 2013.01  RunTime: Jan01-2013 00:00:00  Nodes: 1  Procs: 1

 Temporary files are created in /tmp/kid_0.UWdiyx

 Hydrogen (TZP)



 ===========================
 A T T A C H E D   F I L E S
 ===========================
  
 CREATE - Data File:    /home/danian/Documents/programas/adf2013.01/atomicdata/ZORA/TZP/H
                        Hydrogen (TZP)
 Core Potentials:
         file : t12.rel



 ===============================
 M O D E L   P A R A M E T E R S
 ===============================
  
 DENSITY FUNCTIONAL POTENTIAL (scf)
    LDA:                               PW92                                    == Not Default ==
    Gradient Corrections:              PBEc PBEx                               == Not Default ==

 SPIN  (restricted / unrestr.)
    Molecule:                          Restricted                               

 OTHER ASPECTS
    Relativistic Corrections:          scalar (ZORA,SAPA)                      == Not Default ==

    Nuclear Charge Density Model:      Point Charge Nuclei                                                                                                                                                                                     
    Core Treatment:                    Frozen Orbital(s)                        

    Hyperfine or Zeeman Interaction:   ---                                      



 =====================================
 S Y M M E T R Y ,   E L E C T R O N S
 =====================================
  
 Symmetry: ATOM

 Irreducible Representations, including subspecies
 -------------------------------------------------
 S
 P:x  P:y  P:z
 D:z2  D:x2-y2  D:xy  D:xz  D:yz
 F:z3  F:z  F:xyz  F:z2x  F:z2y  F:x  F:y


 Configuration of Valence Electrons
 ==================================

          Occupation Numbers
          -------------------------------------------------
 S        1
 P        0
 D        0
 F        0
          -------------------------------------------------

 Total:   1

 Net Charge: 0 (Nuclei minus Electrons)

 Preset values for MO occupations will be applied through SCF cycle no. 1000000
 Thereafter, the program will assign electrons to MOs that are spatially
 similar to the occupied MOs in a "reference" cycle ("KeepOrbitals").
 The reference cycle is always the PREVIOUS cycle: it will evolve with
 the SCF procedure.



 ================================
 (Slater-type)  F U N C T I O N S  ***  (Basis and Fit)  ***
 ================================
  

 Atom Type    1  (H)
 ==============

 Valence Basis Sets:   4
 -----------------------
   1 S    0.690000
   1 S    0.920000
   1 S    1.580000
   2 P    1.250000

 Charge Fitting Sets (for the computation of the Coulomb Potential):  11
 -----------------------------------------------------------------------
   1 S    3.160000
   1 S    2.090000
   1 S    1.380000
   2 S    1.500000
   2 P    4.000000
   2 P    2.650000
   2 P    1.750000
   3 D    4.000000
   3 D    2.500000
   4 F    3.000000
   5 G    4.000000


 BAS: List of all Elementary Cartesian Basis Functions
 =====================================================

 The numbering in the list below (to the right of the function characteristics) is referred
 to in print-outs of MO eigenvectors and Mulliken populations in the BAS representation
 (as contrasted to the SFO representation).

 Notes:
 1. The functions are characterized by a polynomial prefactor (powers of x,y,z and r) and
    an exponential decay factor alpha.
 2. Since the basis sets are specific for an atom TYPE, the individual functions occur on
    all atoms of that type.
 3. The word 'Core' in the left margin signals that it is a Core Function (CF) : not a
    degree of freedom in the valence set, but only used to ensure orthogonalization of
    the other valence basis functions on the frozen Core Orbitals.


 (power of) X  Y  Z  R     Alpha  on Atom
            ==========     =====     ==========

 H                                    1
                                  ---------------------------------------------------------------------------
            0  0  0  0     0.690      1
            0  0  0  0     0.920      2
            0  0  0  0     1.580      3
            1  0  0  0     1.250      4
            0  1  0  0     1.250      5
            0  0  1  0     1.250      6

 Total number of charge fitting functions (nprimf)        50
 Total number of Cartesian basis functions (naos)          6
 Total number of Cartesian core functions  (ncos)          0



 BAS: List of all Elementary Cartesian Basis Functions
 =====================================================

 The numbering in the list below (to the right of the function characteristics) is referred
 to in print-outs of MO eigenvectors and Mulliken populations in the BAS representation
 (as contrasted to the SFO representation).

 Notes:
 1. The functions are characterized by a polynomial prefactor (powers of x,y,z and r) and
    an exponential decay factor alpha.
 2. Since the basis sets are specific for an atom TYPE, the individual functions occur on
    all atoms of that type.
 3. The word 'Core' in the left margin signals that it is a Core Function (CF) : not a
    degree of freedom in the valence set, but only used to ensure orthogonalization of
    the other valence basis functions on the frozen Core Orbitals.


 (power of) X  Y  Z  R     Alpha  on Atom
            ==========     =====     ==========

 H                                    1
                                  ---------------------------------------------------------------------------
            0  0  0  0     0.690      1
            0  0  0  0     0.920      2
            0  0  0  0     1.580      3
            1  0  0  0     1.250      4
            0  1  0  0     1.250      5
            0  0  1  0     1.250      6
1
 ***************************************************************************************************



                                              ***********************
                                              *  T E C H N I C A L  *
                                              ***********************
  



 =============================================================
 P A R A L L E L I Z A T I O N  and  V E C T O R I Z A T I O N
 =============================================================
  
 Nr of parallel processes:                                1
 Maximum vector length in NumInt loops:                 128



 ===============
 I O  vs.  C P U  ***  (store numerical data on disk or recalculate)  ***
 ===============
  
 Basis functions:   recalculate when needed
 Fit functions:     recalculate when needed

 IO buffersize (Mb):                                     64.000000



 =====================
 S C F   U P D A T E S
 =====================
  
 Max. nr. of cycles:                               100
 Convergence criterion:                              0.0000000100
   secondary criterion:                              0.0000000100

 Mix parameter (when DIIS does not apply):           0.2000000000
 Special mix parameter for the first cycle:          1.0000000000


 DIIS (Direct Inversion in Iteration Space)
    Replace damping when SCF Error is below:         0.5000000000
    Apply anyway after SCF cycle:
                                                     5
    (Max.) nr. of expansion vectors:                10

    Upperbound on expansion coefficients:            5.0000000000
    (when exceeded, IterationSpace is re-built)
    2nd Upperbound on coefficients:                 25.0000000000
    (when exceeded, simple damping will be used)
 Automatic ElectronSmearing (in case of problematic SCF convergence) disabled



 =================
 P R E C I S I O N  ***  (General: NumInt, NeglectFunctionTails, ...)  ***
 =================
  

 NumInt:           Target precision:                10.0000000000
 -------           Initial precision:               10.0000000000
                   Min. precision (optimization):   10.0000000000

 Neglect Functions:          Basis functions:        0.1000000000E-11
 ------------------          Fit functions:          0.1000000000E-11



 ===========================
 L I N E A R   S C A L I N G
 ===========================
  

 Cut-off radii density fit:                        0.1000000000E-13
 Overlap cut-off criterion AO matrix elements:     0.1000000000E-11
 Cut-offs for Coulomb potential and fitted density:0.1000000000E-13
 Cut-off criterion for Coulomb multipole terms:    0.1000000000E-13
 Progressive Convergence parameter:                 0.000000000    
1
 ***************************************************************************************************



                                            ***************************
                                            *  C O M P U T A T I O N  *
                                            ***************************
  

 Number of elements of the density matrix on this node (used, total):        21        21



 ====================================================
 Numerical Integration : Voronoi Polyhedra (Te Velde)
 ====================================================
  
 General Accuracy Parameter :                         10.00

 Symmetry used in the points section:  ATOM  


 Summary of the Symmetry Unique Points:
 --------------------------------------
    Nr. of used Symmetry Operators                     1

    Points in the Atomic Spheres                      35
    Points in the Atomic Polyhedra                     0
    Points in the Outer Region                         0
    ----------------------------------------------------
    Total                                             35

    Sum of Weights                                 33854.777883

 Total nr. of points:         35
 Nr. of blocks:                1
 Block length:                35
 Nr. of dummy points:          0


 Test of Precision of the Numerical Integration Grid
 ===================================================

 Integral of the Total Core Density:                   0.00000000000000



 =====
 S C F
 =====
  

 CYCLE    1
 orbitals (Q,E):
 ---------------
 S :1...3            ( 1.00    -0.2442)  ( 0.00     0.0880)  ( 0.00     1.5160)
 P :1...1            ( 0.00     0.4007)

 CYCLE    2
 d-Pmat  mean:  0.91E-02
 imax=      2: -0.42E-01
 orbitals (Q,E):
 ---------------
 S :1...2            ( 1.00    -0.2375)  ( 0.00     0.0911)
 P :1...1            ( 0.00     0.4063)

 CYCLE    3
 d-Pmat  mean:  0.14E-02
 imax=      2:  0.62E-02
 orbitals (Q,E):
 ---------------
 S :1...2            ( 1.00    -0.2387)  ( 0.00     0.0905)
 P :1...1            ( 0.00     0.4053)

 CYCLE    4
 d-Pmat  mean:  0.13E-04
 imax=      2:  0.49E-04
 orbitals (Q,E):
 ---------------
 S :1...2            ( 1.00    -0.2388)  ( 0.00     0.0904)
 P :1...1            ( 0.00     0.4053)

 CYCLE    5
 d-Pmat  mean:  0.73E-07
 imax=      2:  0.34E-06
 orbitals (Q,E):
 ---------------
 S :1...2            ( 1.00    -0.2388)  ( 0.00     0.0904)
 P :1...1            ( 0.00     0.4053)

 CYCLE    6
 d-Pmat  mean:  0.14E-10
 imax=      2:  0.67E-10
 orbitals (Q,E):
 ---------------
 S :1...2            ( 1.00    -0.2388)  ( 0.00     0.0904)
 P :1...1            ( 0.00     0.4053)

 SCF CONVERGED

 CYCLE    7
1
 ***************************************************************************************************



                                                *******************
                                                *  R E S U L T S  *
                                                *******************
  
 *** Setting up for NEW gradients in focky
 *** Using FIT density in focky

 Scaled ZORA Orbital Energies, per Irrep and Spin:
 =================================================
                        Occup              E (au)              E (eV)       Diff (eV) with prev. cycle
                        -----      --------------------        ------       --------------------------
 S
               1        1.000     -0.23877285297018E+00        -6.497              -3.75E-11
               2        0.000      0.90435302621339E-01         2.461
               3        0.000      0.15214594303926E+01        41.401
 P
               1        0.000      0.40525201574373E+00        11.027


 Partially Occupied:
               1 S                -0.23877285297018E+00
  
 LUMO :        2 S                 0.90435302621339E-01
  


 Orbital Energies, all Irreps
 ========================================

 Irrep        no.  (spin)   Occup              E (au)                E (eV)
 ---------------------------------------------------------------------------
 S             1             1.00       -0.23877285297018E+00        -6.4973
 S             2             0.00        0.90435302621339E-01         2.4609
 P             1             0.00        0.40525201574373E+00        11.0275
 S             3             0.00        0.15214594303926E+01        41.4010


 All Electron Calculation, thus no Orbital Energies of the Core Orbitals are calculated



 =======================================
 M U L L I K E N   P O P U L A T I O N S
 =======================================
  
 The survey below gives for each atom:
 a) the total charge (Z minus electrons)
 b) the net spin polarization (nr of electrons spin-A minus spin-B)
 c) for each spin the atomic electron valence density (integrated) per L-value.

 Atom              Charge    Spin density          S         P         D         F
 ----              ------    ------------       ------    ------    ------    ------
 1 H               0.0000                       1.0000    0.0000    0.0000    0.0000

 Populations of individual BAS functions
 ----------------------------------------
 1 H            0.2105  0.6787  0.1108  0.0000  0.0000  0.0000

 Gross Charges per Atom (Z minus electrons)
 ==========================================
             0.0000
 Net Total:  0.00000000


 Atom-Atom Population Matrix (off-diagonal elements not doubled)
 ===============================================================

     1 :     1.0000



 =============
 Dipole Moment  ***  (Debye)  ***
 =============
  
 Vector   :         0.00000000      0.00000000      0.00000000
 Magnitude:         0.00000000

 This molecular dipole moment is calculated with analytic integration



 =========================================
 Quadrupole Moment (Buckingham convention)  ***  (a.u.)  ***
 =========================================
  
      quad-xx        quad-xy        quad-xz        quad-yy        quad-yz        quad-zz
      0.00000000     0.00000000     0.00000000     0.00000000     0.00000000     0.00000000

 This molecular quadrupole moment is calculated with analytic integration



 ===============================================================================
 Electrostatic potential at the Nuclei due to valence electrons and other nuclei
 ===============================================================================
  
         Atom                  Potential
         ----                  ---------
     1)   H                   0.94455221
 
 
 ========================
 No memory problems found
 ========================
 
 Maximum number of active allocate calls:         308
 
 *******************************************************************************

                             A D F   E X I T
 NORMAL TERMINATION



 =================
 Timing Statistics
 =================
  
 Total Used :                     CPU=        0.11      System=        0.02     Elapsed=        0.13

 Calls  Section                     ( Mean, Percentage )
 ---------------------------------------------------------------------------------------------------
     3  ><      ................      0.00    0.63             0.00    0.03             0.00    0.53
     1  INIT    ................      0.01    5.61             0.00   11.27             0.01    6.51
     1  GEOMET  ................      0.01   13.46             0.02   73.57             0.03   23.23
     1  INPUTA  ................      0.00    1.02             0.00    0.00             0.00    0.85
     1  MAINSY  ................      0.01    4.75             0.00    0.00             0.01    3.98
     1  SYMFIT  ................      0.00    0.31             0.00    0.00             0.00    0.26
     1  CORORT  ................      0.00    0.22             0.00    0.00             0.00    0.18
     1  SYMORB  ................      0.00    0.35             0.00    0.00             0.00    0.29
     1  FITINT  ................      0.00    2.51             0.00    0.00             0.00    2.12
     1  CLSMAT  ................      0.00    0.19             0.00    0.00             0.00    0.16
     1  ORTHON  ................      0.00    0.62             0.00    0.00             0.00    0.52
     1  GENPT   ................      0.00    3.38             0.00    0.00             0.00    2.84
     1  PTBAS   ................      0.00    1.33             0.00    0.00             0.00    1.12
     7  FOCKY   ................      0.01   40.01             0.00   13.83             0.01   35.73
     7  FOCKTR  ................      0.00    1.05             0.00    0.16             0.00    0.91
     7  FOCKNM  ................      0.00    0.15             0.00    0.02             0.00    0.13
     7  SDIIS   ................      0.00    1.68             0.00    0.26             0.00    1.45
     7  EMERGE  ................      0.00    7.16             0.00    0.84             0.00    6.13
     1  COREPS  ................      0.00    1.92             0.00    0.00             0.00    1.61
     1  POPAN   ................      0.00    1.03             0.00    0.00             0.00    0.86
     1  DEBYE   ................      0.00    0.24             0.00    0.00             0.00    0.20
     1  QMPOT   ................      0.00    1.22             0.00    0.00             0.00    1.02
     1  EXIT PROCEDURE .........      0.01   11.16             0.00    0.00             0.01    9.35


 Currently Open Files (EXIT00)
 ====================

 Unit    Access Format  Status   Type       Ident (file)
 -------------------------------------------------------
   3      SEQ    FORM   TRANSP  NORMAL      LOGFILE
                                          ( logfile )


 Buffered I/O statistics
 =======================
 Memory available:                     67108864
 Number of records fitting in memory:     16131
 Input :   2.1% of                         2184  *4k bytes
 Output:  12.3% of                         1420  *4k bytes
 Records from serial files evicted:           0
                    others evicted:           0
 Hash table lookups:       9718 with          0 conflicts (  0.00%)

 ***************************************************************************************************
 (LOGFILE)
 <Jan01-2013> <00:00:00>  DIRAC 2013.01  RunTime: Jan01-2013 00:00:00  Nodes: 1  Procs: 1
 <Jan01-2013> <00:00:01>  NORMAL TERMINATION
 <Jan01-2013> <00:00:01>  END
 <Jan01-2013> <00:00:02>  ADF 2013.01  RunTime: Jan01-2013 00:00:02  Nodes: 1  Procs: 1
 <Jan01-2013> <00:00:02>  Hydrogen (TZP)
 <Jan01-2013> <00:00:02>  RunType   : CREATE
 <Jan01-2013> <00:00:02>  Net Charge: 0 (Nuclei minus Electrons)
 <Jan01-2013> <00:00:02>  Symmetry  : ATOM
  Coordinates
    Atom         X           Y           Z   (Angstrom)
    1.H         0.000000    0.000000    0.000000
 <Jan01-2013> <00:00:03>  >>>> CORORT
 <Jan01-2013> <00:00:03>  >>>> FITINT
 <Jan01-2013> <00:00:03>  >>>> CLSMAT
 <Jan01-2013> <00:00:03>  >>>> ORTHON
 <Jan01-2013> <00:00:03>  >>>> GENPT
 <Jan01-2013> <00:00:03>  Acc.Num.Int.=  10.000
 <Jan01-2013> <00:00:03>  Block Length=  35
 <Jan01-2013> <00:00:03>  >>>> PTBAS
 <Jan01-2013> <00:00:03>  >>>> CYCLE
 <Jan01-2013> <00:00:03>    1
 <Jan01-2013> <00:00:04>    2  ErrMat   0.00249596  MaxEl -0.00249472
 <Jan01-2013> <00:00:04>    3  ErrMat   0.00062444  MaxEl  0.00061403
 <Jan01-2013> <00:00:04>    4  ErrMat   0.00001581  MaxEl  0.00001400
 <Jan01-2013> <00:00:04>    5  ErrMat   0.00000002  MaxEl -0.00000002
 <Jan01-2013> <00:00:04>    6  ErrMat   0.00000000  MaxEl  0.00000000
 <Jan01-2013> <00:00:04>  SCF converged
 <Jan01-2013> <00:00:04>    7  ErrMat   0.00000000  MaxEl  0.00000000
 <Jan01-2013> <00:00:04>   Solutions with partially occupied orbitals may not be
 <Jan01-2013> <00:00:04>   lowest in energy. You might consider lowering the
 <Jan01-2013> <00:00:04>   symmetry in the input and explicitly specifying integer
 <Jan01-2013> <00:00:04>   occupations. In that case always check that you obtain
 <Jan01-2013> <00:00:04>   an aufbau solution.
 <Jan01-2013> <00:00:05>  >>>> POPAN
 <Jan01-2013> <00:00:05>  >>>> DEBYE
 <Jan01-2013> <00:00:05>  NORMAL TERMINATION
 <Jan01-2013> <00:00:05>  END
 <Jan01-2013> <00:00:05>  DIRAC 2013.01  RunTime: Jan01-2013 00:00:05  Nodes: 1  Procs: 1
 <Jan01-2013> <00:00:05>  NORMAL TERMINATION
 <Jan01-2013> <00:00:05>  END
 <Jan01-2013> <00:00:05>  ADF 2013.01  RunTime: Jan01-2013 00:00:05  Nodes: 1  Procs: 1
 <Jan01-2013> <00:00:05>  Oxygen (TZP)
 <Jan01-2013> <00:00:05>  RunType   : CREATE
 <Jan01-2013> <00:00:05>  Net Charge: 0 (Nuclei minus Electrons)
 <Jan01-2013> <00:00:05>  Symmetry  : ATOM
  Coordinates
    Atom         X           Y           Z   (Angstrom)
    1.O         0.000000    0.000000    0.000000
 <Jan01-2013> <00:00:05>  >>>> CORORT
 <Jan01-2013> <00:00:05>  >>>> FITINT
 <Jan01-2013> <00:00:05>  >>>> CLSMAT
 <Jan01-2013> <00:00:05>  >>>> ORTHON
 <Jan01-2013> <00:00:05>  >>>> GENPT
 <Jan01-2013> <00:00:05>  Acc.Num.Int.=  10.000
 <Jan01-2013> <00:00:05>  Block Length=  58
 <Jan01-2013> <00:00:05>  >>>> PTBAS
 <Jan01-2013> <00:00:05>  >>>> CYCLE
 <Jan01-2013> <00:00:05>    1
 <Jan01-2013> <00:00:05>    2  ErrMat   8.20306701  MaxEl  5.21711031
 <Jan01-2013> <00:00:05>    3  ErrMat   3.42903042  MaxEl -2.40925268
 <Jan01-2013> <00:00:05>    4  ErrMat   2.80462787  MaxEl -1.89873382
 <Jan01-2013> <00:00:05>    5  ErrMat   1.89952944  MaxEl -1.26346350
 <Jan01-2013> <00:00:05>    6  ErrMat   0.19596939  MaxEl -0.10774442
 <Jan01-2013> <00:00:05>    7  ErrMat   0.05108113  MaxEl  0.02731641
 <Jan01-2013> <00:00:05>    8  ErrMat   0.00048208  MaxEl -0.00029995
 <Jan01-2013> <00:00:05>    9  ErrMat   0.00002637  MaxEl  0.00001247
 <Jan01-2013> <00:00:05>   10  ErrMat   0.00000048  MaxEl  0.00000030
 <Jan01-2013> <00:00:05>   11  ErrMat   0.00000000  MaxEl  0.00000000
 <Jan01-2013> <00:00:05>  SCF converged
 <Jan01-2013> <00:00:05>   12  ErrMat   0.00000000  MaxEl  0.00000000
 <Jan01-2013> <00:00:05>   Solutions with partially occupied orbitals may not be
 <Jan01-2013> <00:00:05>   lowest in energy. You might consider lowering the
 <Jan01-2013> <00:00:05>   symmetry in the input and explicitly specifying integer
 <Jan01-2013> <00:00:05>   occupations. In that case always check that you obtain
 <Jan01-2013> <00:00:05>   an aufbau solution.
 <Jan01-2013> <00:00:05>  >>>> POPAN
 <Jan01-2013> <00:00:05>  >>>> DEBYE
 <Jan01-2013> <00:00:05>  NORMAL TERMINATION
 <Jan01-2013> <00:00:05>  END
 <Jan01-2013> <00:00:00>  DIRAC 2013.01  RunTime: Jan01-2013 00:00:00  Nodes: 1  Procs: 1
 <Jan01-2013> <00:00:00>  NORMAL TERMINATION
 <Jan01-2013> <00:00:00>  END
 <Jan01-2013> <00:00:00>  ADF 2013.01  RunTime: Jan01-2013 00:00:00  Nodes: 1  Procs: 1
 <Jan01-2013> <00:00:00>  Hydrogen (TZP)
 <Jan01-2013> <00:00:00>  RunType   : CREATE
 <Jan01-2013> <00:00:00>  Net Charge: 0 (Nuclei minus Electrons)
 <Jan01-2013> <00:00:00>  Symmetry  : ATOM
  Coordinates
    Atom         X           Y           Z   (Angstrom)
    1.H         0.000000    0.000000    0.000000
 <Jan01-2013> <00:00:00>  >>>> CORORT
 <Jan01-2013> <00:00:00>  >>>> FITINT
 <Jan01-2013> <00:00:00>  >>>> CLSMAT
 <Jan01-2013> <00:00:00>  >>>> ORTHON
 <Jan01-2013> <00:00:00>  >>>> GENPT
 <Jan01-2013> <00:00:00>  Acc.Num.Int.=  10.000
 <Jan01-2013> <00:00:00>  Block Length=  35
 <Jan01-2013> <00:00:00>  >>>> PTBAS
 <Jan01-2013> <00:00:00>  >>>> CYCLE
 <Jan01-2013> <00:00:00>    1
 <Jan01-2013> <00:00:00>    2  ErrMat   0.00249596  MaxEl -0.00249472
 <Jan01-2013> <00:00:00>    3  ErrMat   0.00062444  MaxEl  0.00061403
 <Jan01-2013> <00:00:00>    4  ErrMat   0.00001581  MaxEl  0.00001400
 <Jan01-2013> <00:00:00>    5  ErrMat   0.00000002  MaxEl -0.00000002
 <Jan01-2013> <00:00:00>    6  ErrMat   0.00000000  MaxEl  0.00000000
 <Jan01-2013> <00:00:00>  SCF converged
 <Jan01-2013> <00:00:00>    7  ErrMat   0.00000000  MaxEl  0.00000000
 <Jan01-2013> <00:00:00>   Solutions with partially occupied orbitals may not be
 <Jan01-2013> <00:00:00>   lowest in energy. You might consider lowering the
 <Jan01-2013> <00:00:00>   symmetry in the input and explicitly specifying integer
 <Jan01-2013> <00:00:00>   occupations. In that case always check that you obtain
 <Jan01-2013> <00:00:00>   an aufbau solution.
 <Jan01-2013> <00:00:00>  >>>> POPAN
 <Jan01-2013> <00:00:00>  >>>> DEBYE
 <Jan01-2013> <00:00:00>  NORMAL TERMINATION
 <Jan01-2013> <00:00:00>  END
 <Jan01-2013> <00:00:00>  DIRAC 2013.01  RunTime: Jan01-2013 00:00:00  Nodes: 1  Procs: 1
 <Jan01-2013> <00:00:00>  NORMAL TERMINATION
 <Jan01-2013> <00:00:00>  END
 <Jan01-2013> <00:00:00>  ADF 2013.01  RunTime: Jan01-2013 00:00:00  Nodes: 1  Procs: 1
 <Jan01-2013> <00:00:00>  Oxygen (TZP)
 <Jan01-2013> <00:00:00>  RunType   : CREATE
 <Jan01-2013> <00:00:00>  Net Charge: 0 (Nuclei minus Electrons)
 <Jan01-2013> <00:00:00>  Symmetry  : ATOM
  Coordinates
    Atom         X           Y           Z   (Angstrom)
    1.O         0.000000    0.000000    0.000000
 <Jan01-2013> <00:00:00>  >>>> CORORT
 <Jan01-2013> <00:00:00>  >>>> FITINT
 <Jan01-2013> <00:00:00>  >>>> CLSMAT
 <Jan01-2013> <00:00:00>  >>>> ORTHON
 <Jan01-2013> <00:00:00>  >>>> GENPT
 <Jan01-2013> <00:00:00>  Acc.Num.Int.=  10.000
 <Jan01-2013> <00:00:00>  Block Length=  58
 <Jan01-2013> <00:00:00>  >>>> PTBAS
 <Jan01-2013> <00:00:00>  >>>> CYCLE
 <Jan01-2013> <00:00:00>    1
 <Jan01-2013> <00:00:00>    2  ErrMat   8.20306701  MaxEl  5.21711031
 <Jan01-2013> <00:00:00>    3  ErrMat   3.42903042  MaxEl -2.40925268
 <Jan01-2013> <00:00:00>    4  ErrMat   2.80462787  MaxEl -1.89873382
 <Jan01-2013> <00:00:00>    5  ErrMat   1.89952944  MaxEl -1.26346350
 <Jan01-2013> <00:00:00>    6  ErrMat   0.19596939  MaxEl -0.10774442
 <Jan01-2013> <00:00:00>    7  ErrMat   0.05108113  MaxEl  0.02731641
 <Jan01-2013> <00:00:00>    8  ErrMat   0.00048208  MaxEl -0.00029995
 <Jan01-2013> <00:00:00>    9  ErrMat   0.00002637  MaxEl  0.00001247
 <Jan01-2013> <00:00:00>   10  ErrMat   0.00000048  MaxEl  0.00000030
 <Jan01-2013> <00:00:01>   11  ErrMat   0.00000000  MaxEl  0.00000000
 <Jan01-2013> <00:00:01>  SCF converged
 <Jan01-2013> <00:00:01>   12  ErrMat   0.00000000  MaxEl  0.00000000
 <Jan01-2013> <00:00:01>   Solutions with partially occupied orbitals may not be
 <Jan01-2013> <00:00:01>   lowest in energy. You might consider lowering the
 <Jan01-2013> <00:00:01>   symmetry in the input and explicitly specifying integer
 <Jan01-2013> <00:00:01>   occupations. In that case always check that you obtain
 <Jan01-2013> <00:00:01>   an aufbau solution.
 <Jan01-2013> <00:00:01>  >>>> POPAN
 <Jan01-2013> <00:00:01>  >>>> DEBYE
 <Jan01-2013> <00:00:01>  NORMAL TERMINATION
 <Jan01-2013> <00:00:01>  END
 <Jan01-2013> <00:00:00>  DIRAC 2013.01  RunTime: Jan01-2013 00:00:00  Nodes: 1  Procs: 1
 <Jan01-2013> <00:00:00>  NORMAL TERMINATION
 <Jan01-2013> <00:00:00>  END
 <Jan01-2013> <00:00:00>  ADF 2013.01  RunTime: Jan01-2013 00:00:00  Nodes: 1  Procs: 1
 <Jan01-2013> <00:00:00>  Hydrogen (TZP)
 <Jan01-2013> <00:00:00>  RunType   : CREATE
 <Jan01-2013> <00:00:00>  Net Charge: 0 (Nuclei minus Electrons)
 <Jan01-2013> <00:00:00>  Symmetry  : ATOM
  Coordinates
    Atom         X           Y           Z   (Angstrom)
    1.H         0.000000    0.000000    0.000000
 <Jan01-2013> <00:00:00>  >>>> CORORT
 <Jan01-2013> <00:00:00>  >>>> FITINT
 <Jan01-2013> <00:00:00>  >>>> CLSMAT
 <Jan01-2013> <00:00:00>  >>>> ORTHON
 <Jan01-2013> <00:00:00>  >>>> GENPT
 <Jan01-2013> <00:00:00>  Acc.Num.Int.=  10.000
 <Jan01-2013> <00:00:00>  Block Length=  35
 <Jan01-2013> <00:00:00>  >>>> PTBAS
 <Jan01-2013> <00:00:00>  >>>> CYCLE
 <Jan01-2013> <00:00:00>    1
 <Jan01-2013> <00:00:00>    2  ErrMat   0.00249596  MaxEl -0.00249472
 <Jan01-2013> <00:00:00>    3  ErrMat   0.00062444  MaxEl  0.00061403
 <Jan01-2013> <00:00:00>    4  ErrMat   0.00001581  MaxEl  0.00001400
 <Jan01-2013> <00:00:00>    5  ErrMat   0.00000002  MaxEl -0.00000002
 <Jan01-2013> <00:00:00>    6  ErrMat   0.00000000  MaxEl  0.00000000
 <Jan01-2013> <00:00:00>  SCF converged
 <Jan01-2013> <00:00:00>    7  ErrMat   0.00000000  MaxEl  0.00000000
 <Jan01-2013> <00:00:00>   Solutions with partially occupied orbitals may not be
 <Jan01-2013> <00:00:00>   lowest in energy. You might consider lowering the
 <Jan01-2013> <00:00:00>   symmetry in the input and explicitly specifying integer
 <Jan01-2013> <00:00:00>   occupations. In that case always check that you obtain
 <Jan01-2013> <00:00:00>   an aufbau solution.
 <Jan01-2013> <00:00:00>  >>>> POPAN
 <Jan01-2013> <00:00:00>  >>>> DEBYE
 <Jan01-2013> <00:00:00>  NORMAL TERMINATION
 <Jan01-2013> <00:00:00>  END
 <Jan01-2013> <00:00:00>  DIRAC 2013.01  RunTime: Jan01-2013 00:00:00  Nodes: 1  Procs: 1
 <Jan01-2013> <00:00:00>  NORMAL TERMINATION
 <Jan01-2013> <00:00:00>  END
 <Jan01-2013> <00:00:00>  ADF 2013.01  RunTime: Jan01-2013 00:00:00  Nodes: 1  Procs: 1
 <Jan01-2013> <00:00:00>  Oxygen (TZP)
 <Jan01-2013> <00:00:01>  RunType   : CREATE
 <Jan01-2013> <00:00:01>  Net Charge: 0 (Nuclei minus Electrons)
 <Jan01-2013> <00:00:01>  Symmetry  : ATOM
  Coordinates
    Atom         X           Y           Z   (Angstrom)
    1.O         0.000000    0.000000    0.000000
 <Jan01-2013> <00:00:01>  >>>> CORORT
 <Jan01-2013> <00:00:01>  >>>> FITINT
 <Jan01-2013> <00:00:01>  >>>> CLSMAT
 <Jan01-2013> <00:00:01>  >>>> ORTHON
 <Jan01-2013> <00:00:01>  >>>> GENPT
 <Jan01-2013> <00:00:01>  Acc.Num.Int.=  10.000
 <Jan01-2013> <00:00:01>  Block Length=  58
 <Jan01-2013> <00:00:01>  >>>> PTBAS
 <Jan01-2013> <00:00:01>  >>>> CYCLE
 <Jan01-2013> <00:00:01>    1
 <Jan01-2013> <00:00:01>    2  ErrMat   8.20306701  MaxEl  5.21711031
 <Jan01-2013> <00:00:01>    3  ErrMat   3.42903042  MaxEl -2.40925268
 <Jan01-2013> <00:00:01>    4  ErrMat   2.80462787  MaxEl -1.89873382
 <Jan01-2013> <00:00:01>    5  ErrMat   1.89952944  MaxEl -1.26346350
 <Jan01-2013> <00:00:01>    6  ErrMat   0.19596939  MaxEl -0.10774442
 <Jan01-2013> <00:00:01>    7  ErrMat   0.05108113  MaxEl  0.02731641
 <Jan01-2013> <00:00:01>    8  ErrMat   0.00048208  MaxEl -0.00029995
 <Jan01-2013> <00:00:01>    9  ErrMat   0.00002637  MaxEl  0.00001247
 <Jan01-2013> <00:00:01>   10  ErrMat   0.00000048  MaxEl  0.00000030
 <Jan01-2013> <00:00:01>   11  ErrMat   0.00000000  MaxEl  0.00000000
 <Jan01-2013> <00:00:01>  SCF converged
 <Jan01-2013> <00:00:01>   12  ErrMat   0.00000000  MaxEl  0.00000000
 <Jan01-2013> <00:00:01>   Solutions with partially occupied orbitals may not be
 <Jan01-2013> <00:00:01>   lowest in energy. You might consider lowering the
 <Jan01-2013> <00:00:01>   symmetry in the input and explicitly specifying integer
 <Jan01-2013> <00:00:01>   occupations. In that case always check that you obtain
 <Jan01-2013> <00:00:01>   an aufbau solution.
 <Jan01-2013> <00:00:01>  >>>> POPAN
 <Jan01-2013> <00:00:01>  >>>> DEBYE
 <Jan01-2013> <00:00:01>  NORMAL TERMINATION
 <Jan01-2013> <00:00:01>  END
 <Jan01-2013> <00:00:00>  DIRAC 2013.01  RunTime: Jan01-2013 00:00:00  Nodes: 1  Procs: 1
 <Jan01-2013> <00:00:00>  NORMAL TERMINATION
 <Jan01-2013> <00:00:00>  END
 <Jan01-2013> <00:00:00>  ADF 2013.01  RunTime: Jan01-2013 00:00:00  Nodes: 1  Procs: 1
 <Jan01-2013> <00:00:00>  Hydrogen (TZP)
 <Jan01-2013> <00:00:00>  RunType   : CREATE
 <Jan01-2013> <00:00:00>  Net Charge: 0 (Nuclei minus Electrons)
 <Jan01-2013> <00:00:00>  Symmetry  : ATOM
  Coordinates
    Atom         X           Y           Z   (Angstrom)
    1.H         0.000000    0.000000    0.000000
 <Jan01-2013> <00:00:00>  >>>> CORORT
 <Jan01-2013> <00:00:00>  >>>> FITINT
 <Jan01-2013> <00:00:00>  >>>> CLSMAT
 <Jan01-2013> <00:00:00>  >>>> ORTHON
 <Jan01-2013> <00:00:00>  >>>> GENPT
 <Jan01-2013> <00:00:00>  Acc.Num.Int.=  10.000
 <Jan01-2013> <00:00:00>  Block Length=  35
 <Jan01-2013> <00:00:00>  >>>> PTBAS
 <Jan01-2013> <00:00:00>  >>>> CYCLE
 <Jan01-2013> <00:00:00>    1
 <Jan01-2013> <00:00:00>    2  ErrMat   0.00249596  MaxEl -0.00249472
 <Jan01-2013> <00:00:00>    3  ErrMat   0.00062444  MaxEl  0.00061403
 <Jan01-2013> <00:00:00>    4  ErrMat   0.00001581  MaxEl  0.00001400
 <Jan01-2013> <00:00:00>    5  ErrMat   0.00000002  MaxEl -0.00000002
 <Jan01-2013> <00:00:00>    6  ErrMat   0.00000000  MaxEl  0.00000000
 <Jan01-2013> <00:00:00>  SCF converged
 <Jan01-2013> <00:00:01>    7  ErrMat   0.00000000  MaxEl  0.00000000
 <Jan01-2013> <00:00:01>   Solutions with partially occupied orbitals may not be
 <Jan01-2013> <00:00:01>   lowest in energy. You might consider lowering the
 <Jan01-2013> <00:00:01>   symmetry in the input and explicitly specifying integer
 <Jan01-2013> <00:00:01>   occupations. In that case always check that you obtain
 <Jan01-2013> <00:00:01>   an aufbau solution.
 <Jan01-2013> <00:00:01>  >>>> POPAN
 <Jan01-2013> <00:00:01>  >>>> DEBYE
 <Jan01-2013> <00:00:01>  NORMAL TERMINATION
 <Jan01-2013> <00:00:01>  END
 <Jan01-2013> <00:00:01>  DIRAC 2013.01  RunTime: Jan01-2013 00:00:01  Nodes: 1  Procs: 1
 <Jan01-2013> <00:00:01>  NORMAL TERMINATION
 <Jan01-2013> <00:00:01>  END
 <Jan01-2013> <00:00:01>  ADF 2013.01  RunTime: Jan01-2013 00:00:01  Nodes: 1  Procs: 1
 <Jan01-2013> <00:00:01>  Oxygen (TZP)
 <Jan01-2013> <00:00:01>  RunType   : CREATE
 <Jan01-2013> <00:00:01>  Net Charge: 0 (Nuclei minus Electrons)
 <Jan01-2013> <00:00:01>  Symmetry  : ATOM
  Coordinates
    Atom         X           Y           Z   (Angstrom)
    1.O         0.000000    0.000000    0.000000
 <Jan01-2013> <00:00:01>  >>>> CORORT
 <Jan01-2013> <00:00:01>  >>>> FITINT
 <Jan01-2013> <00:00:01>  >>>> CLSMAT
 <Jan01-2013> <00:00:01>  >>>> ORTHON
 <Jan01-2013> <00:00:01>  >>>> GENPT
 <Jan01-2013> <00:00:01>  Acc.Num.Int.=  10.000
 <Jan01-2013> <00:00:01>  Block Length=  58
 <Jan01-2013> <00:00:01>  >>>> PTBAS
 <Jan01-2013> <00:00:01>  >>>> CYCLE
 <Jan01-2013> <00:00:01>    1
 <Jan01-2013> <00:00:01>    2  ErrMat   8.20306701  MaxEl  5.21711031
 <Jan01-2013> <00:00:01>    3  ErrMat   3.42903042  MaxEl -2.40925268
 <Jan01-2013> <00:00:01>    4  ErrMat   2.80462787  MaxEl -1.89873382
 <Jan01-2013> <00:00:01>    5  ErrMat   1.89952944  MaxEl -1.26346350
 <Jan01-2013> <00:00:01>    6  ErrMat   0.19596939  MaxEl -0.10774442
 <Jan01-2013> <00:00:01>    7  ErrMat   0.05108113  MaxEl  0.02731641
 <Jan01-2013> <00:00:01>    8  ErrMat   0.00048208  MaxEl -0.00029995
 <Jan01-2013> <00:00:01>    9  ErrMat   0.00002637  MaxEl  0.00001247
 <Jan01-2013> <00:00:01>   10  ErrMat   0.00000048  MaxEl  0.00000030
 <Jan01-2013> <00:00:01>   11  ErrMat   0.00000000  MaxEl  0.00000000
 <Jan01-2013> <00:00:01>  SCF converged
 <Jan01-2013> <00:00:01>   12  ErrMat   0.00000000  MaxEl  0.00000000
 <Jan01-2013> <00:00:01>   Solutions with partially occupied orbitals may not be
 <Jan01-2013> <00:00:01>   lowest in energy. You might consider lowering the
 <Jan01-2013> <00:00:01>   symmetry in the input and explicitly specifying integer
 <Jan01-2013> <00:00:01>   occupations. In that case always check that you obtain
 <Jan01-2013> <00:00:01>   an aufbau solution.
 <Jan01-2013> <00:00:01>  >>>> POPAN
 <Jan01-2013> <00:00:01>  >>>> DEBYE
 <Jan01-2013> <00:00:01>  NORMAL TERMINATION
 <Jan01-2013> <00:00:01>  END
 <Jan01-2013> <00:00:00>  DIRAC 2013.01  RunTime: Jan01-2013 00:00:00  Nodes: 1  Procs: 1
 <Jan01-2013> <00:00:00>  NORMAL TERMINATION
 <Jan01-2013> <00:00:00>  END
 <Jan01-2013> <00:00:00>  ADF 2013.01  RunTime: Jan01-2013 00:00:00  Nodes: 1  Procs: 1
 <Jan01-2013> <00:00:00>  Hydrogen (TZP)
 <Jan01-2013> <00:00:00>  RunType   : CREATE
 <Jan01-2013> <00:00:00>  Net Charge: 0 (Nuclei minus Electrons)
 <Jan01-2013> <00:00:00>  Symmetry  : ATOM
  Coordinates
    Atom         X           Y           Z   (Angstrom)
    1.H         0.000000    0.000000    0.000000
 <Jan01-2013> <00:00:00>  >>>> CORORT
 <Jan01-2013> <00:00:00>  >>>> FITINT
 <Jan01-2013> <00:00:00>  >>>> CLSMAT
 <Jan01-2013> <00:00:00>  >>>> ORTHON
 <Jan01-2013> <00:00:00>  >>>> GENPT
 <Jan01-2013> <00:00:00>  Acc.Num.Int.=  10.000
 <Jan01-2013> <00:00:00>  Block Length=  35
 <Jan01-2013> <00:00:00>  >>>> PTBAS
 <Jan01-2013> <00:00:00>  >>>> CYCLE
 <Jan01-2013> <00:00:00>    1
 <Jan01-2013> <00:00:00>    2  ErrMat   0.00249596  MaxEl -0.00249472
 <Jan01-2013> <00:00:00>    3  ErrMat   0.00062444  MaxEl  0.00061403
 <Jan01-2013> <00:00:00>    4  ErrMat   0.00001581  MaxEl  0.00001400
 <Jan01-2013> <00:00:00>    5  ErrMat   0.00000002  MaxEl -0.00000002
 <Jan01-2013> <00:00:00>    6  ErrMat   0.00000000  MaxEl  0.00000000
 <Jan01-2013> <00:00:00>  SCF converged
 <Jan01-2013> <00:00:01>    7  ErrMat   0.00000000  MaxEl  0.00000000
 <Jan01-2013> <00:00:01>   Solutions with partially occupied orbitals may not be
 <Jan01-2013> <00:00:01>   lowest in energy. You might consider lowering the
 <Jan01-2013> <00:00:01>   symmetry in the input and explicitly specifying integer
 <Jan01-2013> <00:00:01>   occupations. In that case always check that you obtain
 <Jan01-2013> <00:00:01>   an aufbau solution.
 <Jan01-2013> <00:00:01>  >>>> POPAN
 <Jan01-2013> <00:00:01>  >>>> DEBYE
 <Jan01-2013> <00:00:01>  NORMAL TERMINATION
 <Jan01-2013> <00:00:01>  END
 <Jan01-2013> <00:00:01>  DIRAC 2013.01  RunTime: Jan01-2013 00:00:01  Nodes: 1  Procs: 1
 <Jan01-2013> <00:00:01>  NORMAL TERMINATION
 <Jan01-2013> <00:00:01>  END
 <Jan01-2013> <00:00:01>  ADF 2013.01  RunTime: Jan01-2013 00:00:01  Nodes: 1  Procs: 1
 <Jan01-2013> <00:00:01>  Oxygen (TZP)
 <Jan01-2013> <00:00:01>  RunType   : CREATE
 <Jan01-2013> <00:00:01>  Net Charge: 0 (Nuclei minus Electrons)
 <Jan01-2013> <00:00:01>  Symmetry  : ATOM
  Coordinates
    Atom         X           Y           Z   (Angstrom)
    1.O         0.000000    0.000000    0.000000
 <Jan01-2013> <00:00:01>  >>>> CORORT
 <Jan01-2013> <00:00:01>  >>>> FITINT
 <Jan01-2013> <00:00:01>  >>>> CLSMAT
 <Jan01-2013> <00:00:01>  >>>> ORTHON
 <Jan01-2013> <00:00:01>  >>>> GENPT
 <Jan01-2013> <00:00:01>  Acc.Num.Int.=  10.000
 <Jan01-2013> <00:00:01>  Block Length=  58
 <Jan01-2013> <00:00:01>  >>>> PTBAS
 <Jan01-2013> <00:00:01>  >>>> CYCLE
 <Jan01-2013> <00:00:01>    1
 <Jan01-2013> <00:00:01>    2  ErrMat   8.20306701  MaxEl  5.21711031
 <Jan01-2013> <00:00:01>    3  ErrMat   3.42903042  MaxEl -2.40925268
 <Jan01-2013> <00:00:01>    4  ErrMat   2.80462787  MaxEl -1.89873382
 <Jan01-2013> <00:00:01>    5  ErrMat   1.89952944  MaxEl -1.26346350
 <Jan01-2013> <00:00:01>    6  ErrMat   0.19596939  MaxEl -0.10774442
 <Jan01-2013> <00:00:01>    7  ErrMat   0.05108113  MaxEl  0.02731641
 <Jan01-2013> <00:00:01>    8  ErrMat   0.00048208  MaxEl -0.00029995
 <Jan01-2013> <00:00:01>    9  ErrMat   0.00002637  MaxEl  0.00001247
 <Jan01-2013> <00:00:01>   10  ErrMat   0.00000048  MaxEl  0.00000030
 <Jan01-2013> <00:00:01>   11  ErrMat   0.00000000  MaxEl  0.00000000
 <Jan01-2013> <00:00:01>  SCF converged
 <Jan01-2013> <00:00:01>   12  ErrMat   0.00000000  MaxEl  0.00000000
 <Jan01-2013> <00:00:01>   Solutions with partially occupied orbitals may not be
 <Jan01-2013> <00:00:01>   lowest in energy. You might consider lowering the
 <Jan01-2013> <00:00:01>   symmetry in the input and explicitly specifying integer
 <Jan01-2013> <00:00:01>   occupations. In that case always check that you obtain
 <Jan01-2013> <00:00:01>   an aufbau solution.
 <Jan01-2013> <00:00:01>  >>>> POPAN
 <Jan01-2013> <00:00:01>  >>>> DEBYE
 <Jan01-2013> <00:00:01>  NORMAL TERMINATION
 <Jan01-2013> <00:00:01>  END
 <Jan01-2013> <00:00:00>  DIRAC 2013.01  RunTime: Jan01-2013 00:00:00  Nodes: 1  Procs: 1
 <Jan01-2013> <00:00:00>  NORMAL TERMINATION
 <Jan01-2013> <00:00:00>  END
 <Jan01-2013> <00:00:00>  ADF 2013.01  RunTime: Jan01-2013 00:00:00  Nodes: 1  Procs: 1
 <Jan01-2013> <00:00:00>  Hydrogen (TZP)
 <Jan01-2013> <00:00:00>  RunType   : CREATE
 <Jan01-2013> <00:00:00>  Net Charge: 0 (Nuclei minus Electrons)
 <Jan01-2013> <00:00:00>  Symmetry  : ATOM
  Coordinates
    Atom         X           Y           Z   (Angstrom)
    1.H         0.000000    0.000000    0.000000
 <Jan01-2013> <00:00:00>  >>>> CORORT
 <Jan01-2013> <00:00:00>  >>>> FITINT
 <Jan01-2013> <00:00:00>  >>>> CLSMAT
 <Jan01-2013> <00:00:00>  >>>> ORTHON
 <Jan01-2013> <00:00:00>  >>>> GENPT
 <Jan01-2013> <00:00:00>  Acc.Num.Int.=  10.000
 <Jan01-2013> <00:00:00>  Block Length=  35
 <Jan01-2013> <00:00:00>  >>>> PTBAS
 <Jan01-2013> <00:00:00>  >>>> CYCLE
 <Jan01-2013> <00:00:00>    1
 <Jan01-2013> <00:00:00>    2  ErrMat   0.00249596  MaxEl -0.00249472
 <Jan01-2013> <00:00:00>    3  ErrMat   0.00062444  MaxEl  0.00061403
 <Jan01-2013> <00:00:00>    4  ErrMat   0.00001581  MaxEl  0.00001400
 <Jan01-2013> <00:00:00>    5  ErrMat   0.00000002  MaxEl -0.00000002
 <Jan01-2013> <00:00:00>    6  ErrMat   0.00000000  MaxEl  0.00000000
 <Jan01-2013> <00:00:00>  SCF converged
 <Jan01-2013> <00:00:00>    7  ErrMat   0.00000000  MaxEl  0.00000000
 <Jan01-2013> <00:00:00>   Solutions with partially occupied orbitals may not be
 <Jan01-2013> <00:00:00>   lowest in energy. You might consider lowering the
 <Jan01-2013> <00:00:00>   symmetry in the input and explicitly specifying integer
 <Jan01-2013> <00:00:00>   occupations. In that case always check that you obtain
 <Jan01-2013> <00:00:00>   an aufbau solution.
 <Jan01-2013> <00:00:00>  >>>> POPAN
 <Jan01-2013> <00:00:00>  >>>> DEBYE
 <Jan01-2013> <00:00:00>  NORMAL TERMINATION
 <Jan01-2013> <00:00:00>  END
 <Jan01-2013> <00:00:00>  DIRAC 2013.01  RunTime: Jan01-2013 00:00:00  Nodes: 1  Procs: 1
 <Jan01-2013> <00:00:00>  NORMAL TERMINATION
 <Jan01-2013> <00:00:00>  END
 <Jan01-2013> <00:00:00>  ADF 2013.01  RunTime: Jan01-2013 00:00:00  Nodes: 1  Procs: 1
 <Jan01-2013> <00:00:00>  Oxygen (TZP)
 <Jan01-2013> <00:00:00>  RunType   : CREATE
 <Jan01-2013> <00:00:00>  Net Charge: 0 (Nuclei minus Electrons)
 <Jan01-2013> <00:00:00>  Symmetry  : ATOM
  Coordinates
    Atom         X           Y           Z   (Angstrom)
    1.O         0.000000    0.000000    0.000000
 <Jan01-2013> <00:00:00>  >>>> CORORT
 <Jan01-2013> <00:00:00>  >>>> FITINT
 <Jan01-2013> <00:00:00>  >>>> CLSMAT
 <Jan01-2013> <00:00:00>  >>>> ORTHON
 <Jan01-2013> <00:00:00>  >>>> GENPT
 <Jan01-2013> <00:00:00>  Acc.Num.Int.=  10.000
 <Jan01-2013> <00:00:00>  Block Length=  58
 <Jan01-2013> <00:00:00>  >>>> PTBAS
 <Jan01-2013> <00:00:00>  >>>> CYCLE
 <Jan01-2013> <00:00:00>    1
 <Jan01-2013> <00:00:00>    2  ErrMat   8.20306701  MaxEl  5.21711031
 <Jan01-2013> <00:00:00>    3  ErrMat   3.42903042  MaxEl -2.40925268
 <Jan01-2013> <00:00:00>    4  ErrMat   2.80462787  MaxEl -1.89873382
 <Jan01-2013> <00:00:00>    5  ErrMat   1.89952944  MaxEl -1.26346350
 <Jan01-2013> <00:00:00>    6  ErrMat   0.19596939  MaxEl -0.10774442
 <Jan01-2013> <00:00:00>    7  ErrMat   0.05108113  MaxEl  0.02731641
 <Jan01-2013> <00:00:00>    8  ErrMat   0.00048208  MaxEl -0.00029995
 <Jan01-2013> <00:00:00>    9  ErrMat   0.00002637  MaxEl  0.00001247
 <Jan01-2013> <00:00:00>   10  ErrMat   0.00000048  MaxEl  0.00000030
 <Jan01-2013> <00:00:00>   11  ErrMat   0.00000000  MaxEl  0.00000000
 <Jan01-2013> <00:00:00>  SCF converged
 <Jan01-2013> <00:00:00>   12  ErrMat   0.00000000  MaxEl  0.00000000
 <Jan01-2013> <00:00:00>   Solutions with partially occupied orbitals may not be
 <Jan01-2013> <00:00:00>   lowest in energy. You might consider lowering the
 <Jan01-2013> <00:00:00>   symmetry in the input and explicitly specifying integer
 <Jan01-2013> <00:00:00>   occupations. In that case always check that you obtain
 <Jan01-2013> <00:00:00>   an aufbau solution.
 <Jan01-2013> <00:00:00>  >>>> POPAN
 <Jan01-2013> <00:00:00>  >>>> DEBYE
 <Jan01-2013> <00:00:00>  NORMAL TERMINATION
 <Jan01-2013> <00:00:00>  END
 <Jan01-2013> <00:00:00>  DIRAC 2013.01  RunTime: Jan01-2013 00:00:00  Nodes: 1  Procs: 1
 <Jan01-2013> <00:00:00>  NORMAL TERMINATION
 <Jan01-2013> <00:00:00>  END
 <Jan01-2013> <00:00:00>  ADF 2013.01  RunTime: Jan01-2013 00:00:00  Nodes: 1  Procs: 1
 <Jan01-2013> <00:00:00>  Hydrogen (TZP)
 <Jan01-2013> <00:00:00>  RunType   : CREATE
 <Jan01-2013> <00:00:00>  Net Charge: 0 (Nuclei minus Electrons)
 <Jan01-2013> <00:00:00>  Symmetry  : ATOM
  Coordinates
    Atom         X           Y           Z   (Angstrom)
    1.H         0.000000    0.000000    0.000000
 <Jan01-2013> <00:00:00>  >>>> CORORT
 <Jan01-2013> <00:00:00>  >>>> FITINT
 <Jan01-2013> <00:00:00>  >>>> CLSMAT
 <Jan01-2013> <00:00:00>  >>>> ORTHON
 <Jan01-2013> <00:00:00>  >>>> GENPT
 <Jan01-2013> <00:00:00>  Acc.Num.Int.=  10.000
 <Jan01-2013> <00:00:00>  Block Length=  35
 <Jan01-2013> <00:00:00>  >>>> PTBAS
 <Jan01-2013> <00:00:00>  >>>> CYCLE
 <Jan01-2013> <00:00:00>    1
 <Jan01-2013> <00:00:00>    2  ErrMat   0.00249596  MaxEl -0.00249472
 <Jan01-2013> <00:00:00>    3  ErrMat   0.00062444  MaxEl  0.00061403
 <Jan01-2013> <00:00:00>    4  ErrMat   0.00001581  MaxEl  0.00001400
 <Jan01-2013> <00:00:00>    5  ErrMat   0.00000002  MaxEl -0.00000002
 <Jan01-2013> <00:00:00>    6  ErrMat   0.00000000  MaxEl  0.00000000
 <Jan01-2013> <00:00:00>  SCF converged
 <Jan01-2013> <00:00:00>    7  ErrMat   0.00000000  MaxEl  0.00000000
 <Jan01-2013> <00:00:00>   Solutions with partially occupied orbitals may not be
 <Jan01-2013> <00:00:00>   lowest in energy. You might consider lowering the
 <Jan01-2013> <00:00:00>   symmetry in the input and explicitly specifying integer
 <Jan01-2013> <00:00:00>   occupations. In that case always check that you obtain
 <Jan01-2013> <00:00:00>   an aufbau solution.
 <Jan01-2013> <00:00:00>  >>>> POPAN
 <Jan01-2013> <00:00:00>  >>>> DEBYE
 <Jan01-2013> <00:00:00>  NORMAL TERMINATION
 <Jan01-2013> <00:00:00>  END
 <Jan01-2013> <00:00:00>  DIRAC 2013.01  RunTime: Jan01-2013 00:00:00  Nodes: 1  Procs: 1
 <Jan01-2013> <00:00:00>  NORMAL TERMINATION
 <Jan01-2013> <00:00:00>  END
 <Jan01-2013> <00:00:00>  ADF 2013.01  RunTime: Jan01-2013 00:00:00  Nodes: 1  Procs: 1
 <Jan01-2013> <00:00:00>  Oxygen (TZP)
 <Jan01-2013> <00:00:00>  RunType   : CREATE
 <Jan01-2013> <00:00:00>  Net Charge: 0 (Nuclei minus Electrons)
 <Jan01-2013> <00:00:00>  Symmetry  : ATOM
  Coordinates
    Atom         X           Y           Z   (Angstrom)
    1.O         0.000000    0.000000    0.000000
 <Jan01-2013> <00:00:00>  >>>> CORORT
 <Jan01-2013> <00:00:00>  >>>> FITINT
 <Jan01-2013> <00:00:00>  >>>> CLSMAT
 <Jan01-2013> <00:00:00>  >>>> ORTHON
 <Jan01-2013> <00:00:00>  >>>> GENPT
 <Jan01-2013> <00:00:00>  Acc.Num.Int.=  10.000
 <Jan01-2013> <00:00:00>  Block Length=  58
 <Jan01-2013> <00:00:00>  >>>> PTBAS
 <Jan01-2013> <00:00:00>  >>>> CYCLE
 <Jan01-2013> <00:00:00>    1
 <Jan01-2013> <00:00:00>    2  ErrMat   8.20306701  MaxEl  5.21711031
 <Jan01-2013> <00:00:00>    3  ErrMat   3.42903042  MaxEl -2.40925268
 <Jan01-2013> <00:00:00>    4  ErrMat   2.80462787  MaxEl -1.89873382
 <Jan01-2013> <00:00:00>    5  ErrMat   1.89952944  MaxEl -1.26346350
 <Jan01-2013> <00:00:00>    6  ErrMat   0.19596939  MaxEl -0.10774442
 <Jan01-2013> <00:00:00>    7  ErrMat   0.05108113  MaxEl  0.02731641
 <Jan01-2013> <00:00:00>    8  ErrMat   0.00048208  MaxEl -0.00029995
 <Jan01-2013> <00:00:00>    9  ErrMat   0.00002637  MaxEl  0.00001247
 <Jan01-2013> <00:00:00>   10  ErrMat   0.00000048  MaxEl  0.00000030
 <Jan01-2013> <00:00:00>   11  ErrMat   0.00000000  MaxEl  0.00000000
 <Jan01-2013> <00:00:00>  SCF converged
 <Jan01-2013> <00:00:00>   12  ErrMat   0.00000000  MaxEl  0.00000000
 <Jan01-2013> <00:00:00>   Solutions with partially occupied orbitals may not be
 <Jan01-2013> <00:00:00>   lowest in energy. You might consider lowering the
 <Jan01-2013> <00:00:00>   symmetry in the input and explicitly specifying integer
 <Jan01-2013> <00:00:00>   occupations. In that case always check that you obtain
 <Jan01-2013> <00:00:00>   an aufbau solution.
 <Jan01-2013> <00:00:00>  >>>> POPAN
 <Jan01-2013> <00:00:00>  >>>> DEBYE
 <Jan01-2013> <00:00:00>  NORMAL TERMINATION
 <Jan01-2013> <00:00:00>  END
 <Jan01-2013> <00:00:00>  DIRAC 2013.01  RunTime: Jan01-2013 00:00:00  Nodes: 1  Procs: 1
 <Jan01-2013> <00:00:00>  NORMAL TERMINATION
 <Jan01-2013> <00:00:00>  END
 <Jan01-2013> <00:00:00>  ADF 2013.01  RunTime: Jan01-2013 00:00:00  Nodes: 1  Procs: 1
 <Jan01-2013> <00:00:00>  Hydrogen (TZP)
 <Jan01-2013> <00:00:00>  RunType   : CREATE
 <Jan01-2013> <00:00:00>  Net Charge: 0 (Nuclei minus Electrons)
 <Jan01-2013> <00:00:00>  Symmetry  : ATOM
  Coordinates
    Atom         X           Y           Z   (Angstrom)
    1.H         0.000000    0.000000    0.000000
 <Jan01-2013> <00:00:00>  >>>> CORORT
 <Jan01-2013> <00:00:00>  >>>> FITINT
 <Jan01-2013> <00:00:00>  >>>> CLSMAT
 <Jan01-2013> <00:00:00>  >>>> ORTHON
 <Jan01-2013> <00:00:00>  >>>> GENPT
 <Jan01-2013> <00:00:00>  Acc.Num.Int.=  10.000
 <Jan01-2013> <00:00:00>  Block Length=  35
 <Jan01-2013> <00:00:00>  >>>> PTBAS
 <Jan01-2013> <00:00:00>  >>>> CYCLE
 <Jan01-2013> <00:00:00>    1
 <Jan01-2013> <00:00:00>    2  ErrMat   0.00249596  MaxEl -0.00249472
 <Jan01-2013> <00:00:00>    3  ErrMat   0.00062444  MaxEl  0.00061403
 <Jan01-2013> <00:00:00>    4  ErrMat   0.00001581  MaxEl  0.00001400
 <Jan01-2013> <00:00:00>    5  ErrMat   0.00000002  MaxEl -0.00000002
 <Jan01-2013> <00:00:00>    6  ErrMat   0.00000000  MaxEl  0.00000000
 <Jan01-2013> <00:00:00>  SCF converged
 <Jan01-2013> <00:00:00>    7  ErrMat   0.00000000  MaxEl  0.00000000
 <Jan01-2013> <00:00:00>   Solutions with partially occupied orbitals may not be
 <Jan01-2013> <00:00:00>   lowest in energy. You might consider lowering the
 <Jan01-2013> <00:00:00>   symmetry in the input and explicitly specifying integer
 <Jan01-2013> <00:00:00>   occupations. In that case always check that you obtain
 <Jan01-2013> <00:00:00>   an aufbau solution.
 <Jan01-2013> <00:00:00>  >>>> POPAN
 <Jan01-2013> <00:00:00>  >>>> DEBYE
 <Jan01-2013> <00:00:00>  NORMAL TERMINATION
 <Jan01-2013> <00:00:00>  END
 <Jan01-2013> <00:00:00>  DIRAC 2013.01  RunTime: Jan01-2013 00:00:00  Nodes: 1  Procs: 1
 <Jan01-2013> <00:00:01>  NORMAL TERMINATION
 <Jan01-2013> <00:00:01>  END
 <Jan01-2013> <00:00:01>  ADF 2013.01  RunTime: Jan01-2013 00:00:01  Nodes: 1  Procs: 1
 <Jan01-2013> <00:00:01>  Oxygen (TZP)
 <Jan01-2013> <00:00:01>  RunType   : CREATE
 <Jan01-2013> <00:00:01>  Net Charge: 0 (Nuclei minus Electrons)
 <Jan01-2013> <00:00:01>  Symmetry  : ATOM
  Coordinates
    Atom         X           Y           Z   (Angstrom)
    1.O         0.000000    0.000000    0.000000
 <Jan01-2013> <00:00:01>  >>>> CORORT
 <Jan01-2013> <00:00:01>  >>>> FITINT
 <Jan01-2013> <00:00:01>  >>>> CLSMAT
 <Jan01-2013> <00:00:01>  >>>> ORTHON
 <Jan01-2013> <00:00:01>  >>>> GENPT
 <Jan01-2013> <00:00:01>  Acc.Num.Int.=  10.000
 <Jan01-2013> <00:00:01>  Block Length=  58
 <Jan01-2013> <00:00:01>  >>>> PTBAS
 <Jan01-2013> <00:00:01>  >>>> CYCLE
 <Jan01-2013> <00:00:01>    1
 <Jan01-2013> <00:00:01>    2  ErrMat   8.20306701  MaxEl  5.21711031
 <Jan01-2013> <00:00:01>    3  ErrMat   3.42903042  MaxEl -2.40925268
 <Jan01-2013> <00:00:01>    4  ErrMat   2.80462787  MaxEl -1.89873382
 <Jan01-2013> <00:00:01>    5  ErrMat   1.89952944  MaxEl -1.26346350
 <Jan01-2013> <00:00:01>    6  ErrMat   0.19596939  MaxEl -0.10774442
 <Jan01-2013> <00:00:01>    7  ErrMat   0.05108113  MaxEl  0.02731641
 <Jan01-2013> <00:00:01>    8  ErrMat   0.00048208  MaxEl -0.00029995
 <Jan01-2013> <00:00:01>    9  ErrMat   0.00002637  MaxEl  0.00001247
 <Jan01-2013> <00:00:01>   10  ErrMat   0.00000048  MaxEl  0.00000030
 <Jan01-2013> <00:00:01>   11  ErrMat   0.00000000  MaxEl  0.00000000
 <Jan01-2013> <00:00:01>  SCF converged
 <Jan01-2013> <00:00:01>   12  ErrMat   0.00000000  MaxEl  0.00000000
 <Jan01-2013> <00:00:01>   Solutions with partially occupied orbitals may not be
 <Jan01-2013> <00:00:01>   lowest in energy. You might consider lowering the
 <Jan01-2013> <00:00:01>   symmetry in the input and explicitly specifying integer
 <Jan01-2013> <00:00:01>   occupations. In that case always check that you obtain
 <Jan01-2013> <00:00:01>   an aufbau solution.
 <Jan01-2013> <00:00:01>  >>>> POPAN
 <Jan01-2013> <00:00:01>  >>>> DEBYE
 <Jan01-2013> <00:00:01>  NORMAL TERMINATION
 <Jan01-2013> <00:00:01>  END
 <Jan01-2013> <00:00:01>  ADF 2013.01  RunTime: Jan01-2013 00:00:01  Nodes: 1  Procs: 2
 <Jan01-2013> <00:00:02>  Annealing ASCEC
 <Jan01-2013> <00:00:02>  RunType   : SINGLE POINT
 <Jan01-2013> <00:00:02>  ERROR DETECTED: (almost) coinciding atoms or point-charges
 <Jan01-2013> <00:00:02>  END
 <Jan01-2013> <00:00:00>  DIRAC 2013.01  RunTime: Jan01-2013 00:00:00  Nodes: 1  Procs: 1
 <Jan01-2013> <00:00:00>  NORMAL TERMINATION
 <Jan01-2013> <00:00:00>  END
 <Jan01-2013> <00:00:00>  ADF 2013.01  RunTime: Jan01-2013 00:00:00  Nodes: 1  Procs: 1
 <Jan01-2013> <00:00:00>  Hydrogen (TZP)
 <Jan01-2013> <00:00:00>  RunType   : CREATE
 <Jan01-2013> <00:00:00>  Net Charge: 0 (Nuclei minus Electrons)
 <Jan01-2013> <00:00:00>  Symmetry  : ATOM
  Coordinates
    Atom         X           Y           Z   (Angstrom)
    1.H         0.000000    0.000000    0.000000
 <Jan01-2013> <00:00:00>  >>>> CORORT
 <Jan01-2013> <00:00:00>  >>>> FITINT
 <Jan01-2013> <00:00:00>  >>>> CLSMAT
 <Jan01-2013> <00:00:00>  >>>> ORTHON
 <Jan01-2013> <00:00:00>  >>>> GENPT
 <Jan01-2013> <00:00:00>  Acc.Num.Int.=  10.000
 <Jan01-2013> <00:00:00>  Block Length=  35
 <Jan01-2013> <00:00:00>  >>>> PTBAS
 <Jan01-2013> <00:00:00>  >>>> CYCLE
 <Jan01-2013> <00:00:00>    1
 <Jan01-2013> <00:00:00>    2  ErrMat   0.00249596  MaxEl -0.00249472
 <Jan01-2013> <00:00:00>    3  ErrMat   0.00062444  MaxEl  0.00061403
 <Jan01-2013> <00:00:00>    4  ErrMat   0.00001581  MaxEl  0.00001400
 <Jan01-2013> <00:00:00>    5  ErrMat   0.00000002  MaxEl -0.00000002
 <Jan01-2013> <00:00:00>    6  ErrMat   0.00000000  MaxEl  0.00000000
 <Jan01-2013> <00:00:00>  SCF converged
 <Jan01-2013> <00:00:00>    7  ErrMat   0.00000000  MaxEl  0.00000000
 <Jan01-2013> <00:00:00>   Solutions with partially occupied orbitals may not be
 <Jan01-2013> <00:00:00>   lowest in energy. You might consider lowering the
 <Jan01-2013> <00:00:00>   symmetry in the input and explicitly specifying integer
 <Jan01-2013> <00:00:00>   occupations. In that case always check that you obtain
 <Jan01-2013> <00:00:00>   an aufbau solution.
 <Jan01-2013> <00:00:00>  >>>> POPAN
 <Jan01-2013> <00:00:00>  >>>> DEBYE
 <Jan01-2013> <00:00:00>  NORMAL TERMINATION
 <Jan01-2013> <00:00:00>  END
 <Jan01-2013> <00:00:00>  DIRAC 2013.01  RunTime: Jan01-2013 00:00:00  Nodes: 1  Procs: 1
 <Jan01-2013> <00:00:00>  NORMAL TERMINATION
 <Jan01-2013> <00:00:00>  END
 <Jan01-2013> <00:00:00>  ADF 2013.01  RunTime: Jan01-2013 00:00:00  Nodes: 1  Procs: 1
 <Jan01-2013> <00:00:00>  Oxygen (TZP)
 <Jan01-2013> <00:00:00>  RunType   : CREATE
 <Jan01-2013> <00:00:00>  Net Charge: 0 (Nuclei minus Electrons)
 <Jan01-2013> <00:00:00>  Symmetry  : ATOM
  Coordinates
    Atom         X           Y           Z   (Angstrom)
    1.O         0.000000    0.000000    0.000000
 <Jan01-2013> <00:00:00>  >>>> CORORT
 <Jan01-2013> <00:00:00>  >>>> FITINT
 <Jan01-2013> <00:00:00>  >>>> CLSMAT
 <Jan01-2013> <00:00:00>  >>>> ORTHON
 <Jan01-2013> <00:00:00>  >>>> GENPT
 <Jan01-2013> <00:00:00>  Acc.Num.Int.=  10.000
 <Jan01-2013> <00:00:00>  Block Length=  58
 <Jan01-2013> <00:00:00>  >>>> PTBAS
 <Jan01-2013> <00:00:00>  >>>> CYCLE
 <Jan01-2013> <00:00:00>    1
 <Jan01-2013> <00:00:00>    2  ErrMat   8.20306701  MaxEl  5.21711031
 <Jan01-2013> <00:00:00>    3  ErrMat   3.42903042  MaxEl -2.40925268
 <Jan01-2013> <00:00:00>    4  ErrMat   2.80462787  MaxEl -1.89873382
 <Jan01-2013> <00:00:00>    5  ErrMat   1.89952944  MaxEl -1.26346350
 <Jan01-2013> <00:00:00>    6  ErrMat   0.19596939  MaxEl -0.10774442
 <Jan01-2013> <00:00:00>    7  ErrMat   0.05108113  MaxEl  0.02731641
 <Jan01-2013> <00:00:00>    8  ErrMat   0.00048208  MaxEl -0.00029995
 <Jan01-2013> <00:00:01>    9  ErrMat   0.00002637  MaxEl  0.00001247
 <Jan01-2013> <00:00:01>   10  ErrMat   0.00000048  MaxEl  0.00000030
 <Jan01-2013> <00:00:01>   11  ErrMat   0.00000000  MaxEl  0.00000000
 <Jan01-2013> <00:00:01>  SCF converged
 <Jan01-2013> <00:00:01>   12  ErrMat   0.00000000  MaxEl  0.00000000
 <Jan01-2013> <00:00:01>   Solutions with partially occupied orbitals may not be
 <Jan01-2013> <00:00:01>   lowest in energy. You might consider lowering the
 <Jan01-2013> <00:00:01>   symmetry in the input and explicitly specifying integer
 <Jan01-2013> <00:00:01>   occupations. In that case always check that you obtain
 <Jan01-2013> <00:00:01>   an aufbau solution.
 <Jan01-2013> <00:00:01>  >>>> POPAN
 <Jan01-2013> <00:00:01>  >>>> DEBYE
 <Jan01-2013> <00:00:01>  NORMAL TERMINATION
 <Jan01-2013> <00:00:01>  END
 <Jan01-2013> <00:00:01>  ADF 2013.01  RunTime: Jan01-2013 00:00:01  Nodes: 1  Procs: 2
 <Jan01-2013> <00:00:02>  Annealing ASCEC
 <Jan01-2013> <00:00:02>  RunType   : SINGLE POINT
 <Jan01-2013> <00:00:02>  ERROR DETECTED: (almost) coinciding atoms or point-charges
 <Jan01-2013> <00:00:02>  END
 <Jan01-2013> <00:00:00>  DIRAC 2013.01  RunTime: Jan01-2013 00:00:00  Nodes: 1  Procs: 1
 <Jan01-2013> <00:00:00>  NORMAL TERMINATION
 <Jan01-2013> <00:00:00>  END
 <Jan01-2013> <00:00:00>  ADF 2013.01  RunTime: Jan01-2013 00:00:00  Nodes: 1  Procs: 1
 <Jan01-2013> <00:00:00>  Hydrogen (TZP)
 <Jan01-2013> <00:00:00>  RunType   : CREATE
 <Jan01-2013> <00:00:00>  Net Charge: 0 (Nuclei minus Electrons)
 <Jan01-2013> <00:00:00>  Symmetry  : ATOM
  Coordinates
    Atom         X           Y           Z   (Angstrom)
    1.H         0.000000    0.000000    0.000000
 <Jan01-2013> <00:00:00>  >>>> CORORT
 <Jan01-2013> <00:00:00>  >>>> FITINT
 <Jan01-2013> <00:00:00>  >>>> CLSMAT
 <Jan01-2013> <00:00:00>  >>>> ORTHON
 <Jan01-2013> <00:00:00>  >>>> GENPT
 <Jan01-2013> <00:00:00>  Acc.Num.Int.=  10.000
 <Jan01-2013> <00:00:00>  Block Length=  35
 <Jan01-2013> <00:00:00>  >>>> PTBAS
 <Jan01-2013> <00:00:00>  >>>> CYCLE
 <Jan01-2013> <00:00:00>    1
 <Jan01-2013> <00:00:00>    2  ErrMat   0.00249596  MaxEl -0.00249472
 <Jan01-2013> <00:00:00>    3  ErrMat   0.00062444  MaxEl  0.00061403
 <Jan01-2013> <00:00:00>    4  ErrMat   0.00001581  MaxEl  0.00001400
 <Jan01-2013> <00:00:00>    5  ErrMat   0.00000002  MaxEl -0.00000002
 <Jan01-2013> <00:00:00>    6  ErrMat   0.00000000  MaxEl  0.00000000
 <Jan01-2013> <00:00:00>  SCF converged
 <Jan01-2013> <00:00:00>    7  ErrMat   0.00000000  MaxEl  0.00000000
 <Jan01-2013> <00:00:00>   Solutions with partially occupied orbitals may not be
 <Jan01-2013> <00:00:00>   lowest in energy. You might consider lowering the
 <Jan01-2013> <00:00:00>   symmetry in the input and explicitly specifying integer
 <Jan01-2013> <00:00:00>   occupations. In that case always check that you obtain
 <Jan01-2013> <00:00:00>   an aufbau solution.
 <Jan01-2013> <00:00:00>  >>>> POPAN
 <Jan01-2013> <00:00:00>  >>>> DEBYE
 <Jan01-2013> <00:00:00>  NORMAL TERMINATION
 <Jan01-2013> <00:00:00>  END
 <Jan01-2013> <00:00:00>  DIRAC 2013.01  RunTime: Jan01-2013 00:00:00  Nodes: 1  Procs: 1
 <Jan01-2013> <00:00:00>  NORMAL TERMINATION
 <Jan01-2013> <00:00:00>  END
 <Jan01-2013> <00:00:00>  ADF 2013.01  RunTime: Jan01-2013 00:00:00  Nodes: 1  Procs: 1
 <Jan01-2013> <00:00:00>  Oxygen (TZP)
 <Jan01-2013> <00:00:00>  RunType   : CREATE
 <Jan01-2013> <00:00:00>  Net Charge: 0 (Nuclei minus Electrons)
 <Jan01-2013> <00:00:00>  Symmetry  : ATOM
  Coordinates
    Atom         X           Y           Z   (Angstrom)
    1.O         0.000000    0.000000    0.000000
 <Jan01-2013> <00:00:00>  >>>> CORORT
 <Jan01-2013> <00:00:00>  >>>> FITINT
 <Jan01-2013> <00:00:00>  >>>> CLSMAT
 <Jan01-2013> <00:00:00>  >>>> ORTHON
 <Jan01-2013> <00:00:00>  >>>> GENPT
 <Jan01-2013> <00:00:00>  Acc.Num.Int.=  10.000
 <Jan01-2013> <00:00:00>  Block Length=  58
 <Jan01-2013> <00:00:00>  >>>> PTBAS
 <Jan01-2013> <00:00:00>  >>>> CYCLE
 <Jan01-2013> <00:00:00>    1
 <Jan01-2013> <00:00:00>    2  ErrMat   8.20306701  MaxEl  5.21711031
 <Jan01-2013> <00:00:00>    3  ErrMat   3.42903042  MaxEl -2.40925268
 <Jan01-2013> <00:00:00>    4  ErrMat   2.80462787  MaxEl -1.89873382
 <Jan01-2013> <00:00:00>    5  ErrMat   1.89952944  MaxEl -1.26346350
 <Jan01-2013> <00:00:00>    6  ErrMat   0.19596939  MaxEl -0.10774442
 <Jan01-2013> <00:00:00>    7  ErrMat   0.05108113  MaxEl  0.02731641
 <Jan01-2013> <00:00:00>    8  ErrMat   0.00048208  MaxEl -0.00029995
 <Jan01-2013> <00:00:00>    9  ErrMat   0.00002637  MaxEl  0.00001247
 <Jan01-2013> <00:00:00>   10  ErrMat   0.00000048  MaxEl  0.00000030
 <Jan01-2013> <00:00:00>   11  ErrMat   0.00000000  MaxEl  0.00000000
 <Jan01-2013> <00:00:00>  SCF converged
 <Jan01-2013> <00:00:00>   12  ErrMat   0.00000000  MaxEl  0.00000000
 <Jan01-2013> <00:00:00>   Solutions with partially occupied orbitals may not be
 <Jan01-2013> <00:00:00>   lowest in energy. You might consider lowering the
 <Jan01-2013> <00:00:00>   symmetry in the input and explicitly specifying integer
 <Jan01-2013> <00:00:00>   occupations. In that case always check that you obtain
 <Jan01-2013> <00:00:00>   an aufbau solution.
 <Jan01-2013> <00:00:00>  >>>> POPAN
 <Jan01-2013> <00:00:00>  >>>> DEBYE
 <Jan01-2013> <00:00:00>  NORMAL TERMINATION
 <Jan01-2013> <00:00:00>  END
 <Jan01-2013> <00:00:01>  ADF 2013.01  RunTime: Jan01-2013 00:00:01  Nodes: 1  Procs: 2
 <Jan01-2013> <00:00:01>  Annealing ASCEC
 <Jan01-2013> <00:00:01>  RunType   : SINGLE POINT
 <Jan01-2013> <00:00:01>  ERROR DETECTED: (almost) coinciding atoms or point-charges
 <Jan01-2013> <00:00:01>  END
 <Jan01-2013> <00:00:00>  DIRAC 2013.01  RunTime: Jan01-2013 00:00:00  Nodes: 1  Procs: 1
 <Jan01-2013> <00:00:00>  NORMAL TERMINATION
 <Jan01-2013> <00:00:00>  END
 <Jan01-2013> <00:00:00>  ADF 2013.01  RunTime: Jan01-2013 00:00:00  Nodes: 1  Procs: 1
 <Jan01-2013> <00:00:00>  Hydrogen (TZP)
 <Jan01-2013> <00:00:00>  RunType   : CREATE
 <Jan01-2013> <00:00:00>  Net Charge: 0 (Nuclei minus Electrons)
 <Jan01-2013> <00:00:00>  Symmetry  : ATOM
  Coordinates
    Atom         X           Y           Z   (Angstrom)
    1.H         0.000000    0.000000    0.000000
 <Jan01-2013> <00:00:00>  >>>> CORORT
 <Jan01-2013> <00:00:00>  >>>> FITINT
 <Jan01-2013> <00:00:00>  >>>> CLSMAT
 <Jan01-2013> <00:00:00>  >>>> ORTHON
 <Jan01-2013> <00:00:00>  >>>> GENPT
 <Jan01-2013> <00:00:00>  Acc.Num.Int.=  10.000
 <Jan01-2013> <00:00:00>  Block Length=  35
 <Jan01-2013> <00:00:00>  >>>> PTBAS
 <Jan01-2013> <00:00:00>  >>>> CYCLE
 <Jan01-2013> <00:00:00>    1
 <Jan01-2013> <00:00:00>    2  ErrMat   0.00249596  MaxEl -0.00249472
 <Jan01-2013> <00:00:00>    3  ErrMat   0.00062444  MaxEl  0.00061403
 <Jan01-2013> <00:00:00>    4  ErrMat   0.00001581  MaxEl  0.00001400
 <Jan01-2013> <00:00:00>    5  ErrMat   0.00000002  MaxEl -0.00000002
 <Jan01-2013> <00:00:00>    6  ErrMat   0.00000000  MaxEl  0.00000000
 <Jan01-2013> <00:00:00>  SCF converged
 <Jan01-2013> <00:00:00>    7  ErrMat   0.00000000  MaxEl  0.00000000
 <Jan01-2013> <00:00:00>   Solutions with partially occupied orbitals may not be
 <Jan01-2013> <00:00:00>   lowest in energy. You might consider lowering the
 <Jan01-2013> <00:00:00>   symmetry in the input and explicitly specifying integer
 <Jan01-2013> <00:00:00>   occupations. In that case always check that you obtain
 <Jan01-2013> <00:00:00>   an aufbau solution.
 <Jan01-2013> <00:00:00>  >>>> POPAN
 <Jan01-2013> <00:00:00>  >>>> DEBYE
 <Jan01-2013> <00:00:00>  NORMAL TERMINATION
 <Jan01-2013> <00:00:00>  END
 <Jan01-2013> <00:00:00>  DIRAC 2013.01  RunTime: Jan01-2013 00:00:00  Nodes: 1  Procs: 1
 <Jan01-2013> <00:00:00>  NORMAL TERMINATION
 <Jan01-2013> <00:00:00>  END
 <Jan01-2013> <00:00:00>  ADF 2013.01  RunTime: Jan01-2013 00:00:00  Nodes: 1  Procs: 1
 <Jan01-2013> <00:00:00>  Oxygen (TZP)
 <Jan01-2013> <00:00:00>  RunType   : CREATE
 <Jan01-2013> <00:00:00>  Net Charge: 0 (Nuclei minus Electrons)
 <Jan01-2013> <00:00:00>  Symmetry  : ATOM
  Coordinates
    Atom         X           Y           Z   (Angstrom)
    1.O         0.000000    0.000000    0.000000
 <Jan01-2013> <00:00:00>  >>>> CORORT
 <Jan01-2013> <00:00:00>  >>>> FITINT
 <Jan01-2013> <00:00:00>  >>>> CLSMAT
 <Jan01-2013> <00:00:00>  >>>> ORTHON
 <Jan01-2013> <00:00:00>  >>>> GENPT
 <Jan01-2013> <00:00:00>  Acc.Num.Int.=  10.000
 <Jan01-2013> <00:00:00>  Block Length=  58
 <Jan01-2013> <00:00:00>  >>>> PTBAS
 <Jan01-2013> <00:00:00>  >>>> CYCLE
 <Jan01-2013> <00:00:00>    1
 <Jan01-2013> <00:00:00>    2  ErrMat   8.20306701  MaxEl  5.21711031
 <Jan01-2013> <00:00:00>    3  ErrMat   3.42903042  MaxEl -2.40925268
 <Jan01-2013> <00:00:00>    4  ErrMat   2.80462787  MaxEl -1.89873382
 <Jan01-2013> <00:00:00>    5  ErrMat   1.89952944  MaxEl -1.26346350
 <Jan01-2013> <00:00:00>    6  ErrMat   0.19596939  MaxEl -0.10774442
 <Jan01-2013> <00:00:00>    7  ErrMat   0.05108113  MaxEl  0.02731641
 <Jan01-2013> <00:00:00>    8  ErrMat   0.00048208  MaxEl -0.00029995
 <Jan01-2013> <00:00:00>    9  ErrMat   0.00002637  MaxEl  0.00001247
 <Jan01-2013> <00:00:00>   10  ErrMat   0.00000048  MaxEl  0.00000030
 <Jan01-2013> <00:00:00>   11  ErrMat   0.00000000  MaxEl  0.00000000
 <Jan01-2013> <00:00:00>  SCF converged
 <Jan01-2013> <00:00:00>   12  ErrMat   0.00000000  MaxEl  0.00000000
 <Jan01-2013> <00:00:00>   Solutions with partially occupied orbitals may not be
 <Jan01-2013> <00:00:00>   lowest in energy. You might consider lowering the
 <Jan01-2013> <00:00:00>   symmetry in the input and explicitly specifying integer
 <Jan01-2013> <00:00:00>   occupations. In that case always check that you obtain
 <Jan01-2013> <00:00:00>   an aufbau solution.
 <Jan01-2013> <00:00:00>  >>>> POPAN
 <Jan01-2013> <00:00:00>  >>>> DEBYE
 <Jan01-2013> <00:00:00>  NORMAL TERMINATION
 <Jan01-2013> <00:00:00>  END
 <Jan01-2013> <00:00:01>  ADF 2013.01  RunTime: Jan01-2013 00:00:01  Nodes: 1  Procs: 2
 <Jan01-2013> <00:00:01>  Annealing ASCEC
 <Jan01-2013> <00:00:01>  RunType   : SINGLE POINT
 <Jan01-2013> <00:00:01>  Net Charge: 2 (Nuclei minus Electrons)
 <Jan01-2013> <00:00:01>  Symmetry  : C(2V)
 <Jan01-2013> <00:00:01>  >>>> FRAGM
  Coordinates
    Atom         X           Y           Z   (Angstrom)
    1.H         0.000000    0.753010   -0.475986
    2.O         0.000000    0.000000    0.118997
    3.H         0.000000   -0.753010   -0.475986
    4.Xx       -3.500000   -3.500000   -3.500000
    5.Xx        3.500000   -3.500000   -3.500000
    6.Xx        3.500000    3.500000   -3.500000
    7.Xx        3.500000    3.500000    3.500000
    8.Xx       -3.500000    3.500000   -3.500000
    9.Xx       -3.500000    3.500000    3.500000
   10.Xx       -3.500000   -3.500000    3.500000
   11.Xx        3.500000   -3.500000    3.500000
 <Jan01-2013> <00:00:02>  >>>> CORORT
 <Jan01-2013> <00:00:02>  >>>> FITINT
 <Jan01-2013> <00:00:02>  >>>> CLSMAT
 <Jan01-2013> <00:00:02>  >>>> ORTHON
 <Jan01-2013> <00:00:02>  >>>> GENPT
 <Jan01-2013> <00:00:02>  Acc.Num.Int.=   6.000
 <Jan01-2013> <00:00:02>  Block Length= 127
 <Jan01-2013> <00:00:02>  >>>> PTBAS
 <Jan01-2013> <00:00:02>  >>>> CYCLE
 <Jan01-2013> <00:00:02>    1
 <Jan01-2013> <00:00:02>    2  ErrMat   0.65672091  MaxEl  0.30043241
 <Jan01-2013> <00:00:02>    3  ErrMat   0.36511511  MaxEl  0.15698577
 <Jan01-2013> <00:00:02>    4  ErrMat   0.02783127  MaxEl -0.01489131
 <Jan01-2013> <00:00:02>    5  ErrMat   0.00335004  MaxEl  0.00157194
 <Jan01-2013> <00:00:02>    6  ErrMat   0.00016874  MaxEl -0.00008541
 <Jan01-2013> <00:00:02>    7  ErrMat   0.00001745  MaxEl  0.00000804
 <Jan01-2013> <00:00:02>    8  ErrMat   0.00000039  MaxEl  0.00000020
 <Jan01-2013> <00:00:02>  SCF converged
 <Jan01-2013> <00:00:02>    9  ErrMat   0.00000002  MaxEl -0.00000001
 <Jan01-2013> <00:00:02>  >>>> TOTEN
 <Jan01-2013> <00:00:02>  >>>> POPAN
 <Jan01-2013> <00:00:03>  >>>> DEBYE
 <Jan01-2013> <00:00:03>  >>>> AMETS
 <Jan01-2013> <00:00:03>   Bond Energy           1.03273278 a.u.
 <Jan01-2013> <00:00:03>   Bond Energy          28.10208889 eV
 <Jan01-2013> <00:00:03>   Bond Energy         648.05       kcal/mol
 <Jan01-2013> <00:00:03>  >>>> POPUL
 <Jan01-2013> <00:00:03>  NORMAL TERMINATION
 <Jan01-2013> <00:00:03>  END
 <Jan01-2013> <00:00:00>  DIRAC 2013.01  RunTime: Jan01-2013 00:00:00  Nodes: 1  Procs: 1
 <Jan01-2013> <00:00:00>  NORMAL TERMINATION
 <Jan01-2013> <00:00:00>  END
 <Jan01-2013> <00:00:00>  ADF 2013.01  RunTime: Jan01-2013 00:00:00  Nodes: 1  Procs: 1
 <Jan01-2013> <00:00:00>  Hydrogen (TZP)
 <Jan01-2013> <00:00:00>  RunType   : CREATE
 <Jan01-2013> <00:00:00>  Net Charge: 0 (Nuclei minus Electrons)
 <Jan01-2013> <00:00:00>  Symmetry  : ATOM
  Coordinates
    Atom         X           Y           Z   (Angstrom)
    1.H         0.000000    0.000000    0.000000
 <Jan01-2013> <00:00:00>  >>>> CORORT
 <Jan01-2013> <00:00:00>  >>>> FITINT
 <Jan01-2013> <00:00:00>  >>>> CLSMAT
 <Jan01-2013> <00:00:00>  >>>> ORTHON
 <Jan01-2013> <00:00:00>  >>>> GENPT
 <Jan01-2013> <00:00:00>  Acc.Num.Int.=  10.000
 <Jan01-2013> <00:00:00>  Block Length=  35
 <Jan01-2013> <00:00:00>  >>>> PTBAS
 <Jan01-2013> <00:00:00>  >>>> CYCLE
 <Jan01-2013> <00:00:00>    1
 <Jan01-2013> <00:00:00>    2  ErrMat   0.00249596  MaxEl -0.00249472
 <Jan01-2013> <00:00:00>    3  ErrMat   0.00062444  MaxEl  0.00061403
 <Jan01-2013> <00:00:00>    4  ErrMat   0.00001581  MaxEl  0.00001400
 <Jan01-2013> <00:00:00>    5  ErrMat   0.00000002  MaxEl -0.00000002
 <Jan01-2013> <00:00:00>    6  ErrMat   0.00000000  MaxEl  0.00000000
 <Jan01-2013> <00:00:00>  SCF converged
 <Jan01-2013> <00:00:00>    7  ErrMat   0.00000000  MaxEl  0.00000000
 <Jan01-2013> <00:00:00>   Solutions with partially occupied orbitals may not be
 <Jan01-2013> <00:00:00>   lowest in energy. You might consider lowering the
 <Jan01-2013> <00:00:00>   symmetry in the input and explicitly specifying integer
 <Jan01-2013> <00:00:00>   occupations. In that case always check that you obtain
 <Jan01-2013> <00:00:00>   an aufbau solution.
 <Jan01-2013> <00:00:00>  >>>> POPAN
 <Jan01-2013> <00:00:00>  >>>> DEBYE
 <Jan01-2013> <00:00:00>  NORMAL TERMINATION
 <Jan01-2013> <00:00:00>  END
 <Jan01-2013> <00:00:00>  DIRAC 2013.01  RunTime: Jan01-2013 00:00:00  Nodes: 1  Procs: 1
 <Jan01-2013> <00:00:01>  NORMAL TERMINATION
 <Jan01-2013> <00:00:01>  END
 <Jan01-2013> <00:00:01>  ADF 2013.01  RunTime: Jan01-2013 00:00:01  Nodes: 1  Procs: 1
 <Jan01-2013> <00:00:01>  Oxygen (TZP)
 <Jan01-2013> <00:00:01>  RunType   : CREATE
 <Jan01-2013> <00:00:01>  Net Charge: 0 (Nuclei minus Electrons)
 <Jan01-2013> <00:00:01>  Symmetry  : ATOM
  Coordinates
    Atom         X           Y           Z   (Angstrom)
    1.O         0.000000    0.000000    0.000000
 <Jan01-2013> <00:00:01>  >>>> CORORT
 <Jan01-2013> <00:00:01>  >>>> FITINT
 <Jan01-2013> <00:00:01>  >>>> CLSMAT
 <Jan01-2013> <00:00:01>  >>>> ORTHON
 <Jan01-2013> <00:00:01>  >>>> GENPT
 <Jan01-2013> <00:00:01>  Acc.Num.Int.=  10.000
 <Jan01-2013> <00:00:01>  Block Length=  58
 <Jan01-2013> <00:00:01>  >>>> PTBAS
 <Jan01-2013> <00:00:01>  >>>> CYCLE
 <Jan01-2013> <00:00:01>    1
 <Jan01-2013> <00:00:01>    2  ErrMat   8.20306701  MaxEl  5.21711031
 <Jan01-2013> <00:00:01>    3  ErrMat   3.42903042  MaxEl -2.40925268
 <Jan01-2013> <00:00:01>    4  ErrMat   2.80462787  MaxEl -1.89873382
 <Jan01-2013> <00:00:01>    5  ErrMat   1.89952944  MaxEl -1.26346350
 <Jan01-2013> <00:00:01>    6  ErrMat   0.19596939  MaxEl -0.10774442
 <Jan01-2013> <00:00:01>    7  ErrMat   0.05108113  MaxEl  0.02731641
 <Jan01-2013> <00:00:01>    8  ErrMat   0.00048208  MaxEl -0.00029995
 <Jan01-2013> <00:00:01>    9  ErrMat   0.00002637  MaxEl  0.00001247
 <Jan01-2013> <00:00:01>   10  ErrMat   0.00000048  MaxEl  0.00000030
 <Jan01-2013> <00:00:01>   11  ErrMat   0.00000000  MaxEl  0.00000000
 <Jan01-2013> <00:00:01>  SCF converged
 <Jan01-2013> <00:00:01>   12  ErrMat   0.00000000  MaxEl  0.00000000
 <Jan01-2013> <00:00:01>   Solutions with partially occupied orbitals may not be
 <Jan01-2013> <00:00:01>   lowest in energy. You might consider lowering the
 <Jan01-2013> <00:00:01>   symmetry in the input and explicitly specifying integer
[...]
     1  PTBAS   ................      0.76    1.97             0.00    0.00             0.76    1.93
    30  FOCKY   ................      0.99   76.64             0.01   47.91             0.99   75.20
    30  FOCKTR  ................      0.00    0.13             0.00    2.11             0.00    0.14
    30  FOCKNM  ................      0.00    0.00             0.00    0.05             0.00    0.00
    30  SDIIS   ................      0.00    0.24             0.00    2.41             0.00    0.25
    30  EMERGE  ................      0.02    1.36             0.00   10.01             0.02    1.57
     1  COREPS  ................      0.57    1.49             0.00    0.00             0.57    1.45
     1  TOTEN   ................      5.14   13.33             0.03   10.01             5.28   13.37
     1  POPAN   ................      0.01    0.02             0.00    1.25             0.07    0.17
     1  DEBYE   ................      0.06    0.16             0.01    3.16             0.07    0.18
     1  INPUTE  ................      0.00    0.00             0.00    0.36             0.00    0.00
     1  SYMORE  ................      0.00    0.00             0.00    0.23             0.01    0.03
     1  METS    ................      0.00    0.00             0.00    0.00             0.00    0.00
     1  CETS    ................      0.02    0.05             0.00    1.25             0.02    0.06
     1  ELNRGY  ................      0.09    0.23             0.00    1.25             0.13    0.34
     1  POPUL   ................      0.05    0.12             0.00    1.25             0.06    0.16
     1  QMPOT   ................      0.00    0.01             0.00    0.00             0.00    0.01
     1  EXIT PROCEDURE .........      0.06    0.14             0.01    3.74             0.07    0.17


 Currently Open Files (EXIT00)
 ====================

 Unit    Access Format  Status   Type       Ident (file)
 -------------------------------------------------------
   3      SEQ    FORM   TRANSP  NORMAL      LOGFILE
                                          ( logfile )


 Buffered I/O statistics
 =======================
 Memory available:                     67108864
 Number of records fitting in memory:     16131
 Input :   0.5% of                       111115  *4k bytes
 Output:   3.8% of                        26648  *4k bytes
 Records from serial files evicted:           0
                    others evicted:           0
 Hash table lookups:     392173 with          0 conflicts (  0.00%)

 ***************************************************************************************************
 (LOGFILE)
 <Jan01-2013> <00:00:01>  DIRAC 2013.01  RunTime: Jan01-2013 00:00:01  Nodes: 1  Procs: 1
 <Jan01-2013> <00:00:01>  NORMAL TERMINATION
 <Jan01-2013> <00:00:01>  END
 <Jan01-2013> <00:00:02>  ADF 2013.01  RunTime: Jan01-2013 00:00:02  Nodes: 1  Procs: 1
 <Jan01-2013> <00:00:02>  Hydrogen (TZP)
 <Jan01-2013> <00:00:02>  RunType   : CREATE
 <Jan01-2013> <00:00:03>  Net Charge: 0 (Nuclei minus Electrons)
 <Jan01-2013> <00:00:03>  Symmetry  : ATOM
  Coordinates
    Atom         X           Y           Z   (Angstrom)
    1.H         0.000000    0.000000    0.000000
 <Jan01-2013> <00:00:03>  >>>> CORORT
 <Jan01-2013> <00:00:03>  >>>> FITINT
 <Jan01-2013> <00:00:03>  >>>> CLSMAT
 <Jan01-2013> <00:00:03>  >>>> ORTHON
 <Jan01-2013> <00:00:03>  >>>> GENPT
 <Jan01-2013> <00:00:03>  Acc.Num.Int.=  10.000
 <Jan01-2013> <00:00:03>  Block Length=  35
 <Jan01-2013> <00:00:03>  >>>> PTBAS
 <Jan01-2013> <00:00:03>  >>>> CYCLE
 <Jan01-2013> <00:00:03>    1
 <Jan01-2013> <00:00:03>    2  ErrMat   0.00249596  MaxEl -0.00249472
 <Jan01-2013> <00:00:03>    3  ErrMat   0.00062444  MaxEl  0.00061403
 <Jan01-2013> <00:00:03>    4  ErrMat   0.00001581  MaxEl  0.00001400
 <Jan01-2013> <00:00:03>    5  ErrMat   0.00000002  MaxEl -0.00000002
 <Jan01-2013> <00:00:03>    6  ErrMat   0.00000000  MaxEl  0.00000000
 <Jan01-2013> <00:00:03>  SCF converged
 <Jan01-2013> <00:00:04>    7  ErrMat   0.00000000  MaxEl  0.00000000
 <Jan01-2013> <00:00:04>   Solutions with partially occupied orbitals may not be
 <Jan01-2013> <00:00:04>   lowest in energy. You might consider lowering the
 <Jan01-2013> <00:00:04>   symmetry in the input and explicitly specifying integer
 <Jan01-2013> <00:00:04>   occupations. In that case always check that you obtain
 <Jan01-2013> <00:00:04>   an aufbau solution.
 <Jan01-2013> <00:00:04>  >>>> POPAN
 <Jan01-2013> <00:00:04>  >>>> DEBYE
 <Jan01-2013> <00:00:04>  NORMAL TERMINATION
 <Jan01-2013> <00:00:04>  END
 <Jan01-2013> <00:00:04>  DIRAC 2013.01  RunTime: Jan01-2013 00:00:04  Nodes: 1  Procs: 1
 <Jan01-2013> <00:00:04>  NORMAL TERMINATION
 <Jan01-2013> <00:00:04>  END
 <Jan01-2013> <00:00:04>  ADF 2013.01  RunTime: Jan01-2013 00:00:04  Nodes: 1  Procs: 1
 <Jan01-2013> <00:00:04>  Oxygen (TZP)
 <Jan01-2013> <00:00:04>  RunType   : CREATE
 <Jan01-2013> <00:00:04>  Net Charge: 0 (Nuclei minus Electrons)
 <Jan01-2013> <00:00:04>  Symmetry  : ATOM
  Coordinates
    Atom         X           Y           Z   (Angstrom)
    1.O         0.000000    0.000000    0.000000
 <Jan01-2013> <00:00:04>  >>>> CORORT
 <Jan01-2013> <00:00:04>  >>>> FITINT
 <Jan01-2013> <00:00:04>  >>>> CLSMAT
 <Jan01-2013> <00:00:04>  >>>> ORTHON
 <Jan01-2013> <00:00:04>  >>>> GENPT
 <Jan01-2013> <00:00:04>  Acc.Num.Int.=  10.000
 <Jan01-2013> <00:00:04>  Block Length=  58
 <Jan01-2013> <00:00:04>  >>>> PTBAS
 <Jan01-2013> <00:00:04>  >>>> CYCLE
 <Jan01-2013> <00:00:04>    1
 <Jan01-2013> <00:00:04>    2  ErrMat   8.20306701  MaxEl  5.21711031
 <Jan01-2013> <00:00:04>    3  ErrMat   3.42903042  MaxEl -2.40925268
 <Jan01-2013> <00:00:04>    4  ErrMat   2.80462787  MaxEl -1.89873382
 <Jan01-2013> <00:00:04>    5  ErrMat   1.89952944  MaxEl -1.26346350
 <Jan01-2013> <00:00:04>    6  ErrMat   0.19596939  MaxEl -0.10774442
 <Jan01-2013> <00:00:04>    7  ErrMat   0.05108113  MaxEl  0.02731641
 <Jan01-2013> <00:00:04>    8  ErrMat   0.00048208  MaxEl -0.00029995
 <Jan01-2013> <00:00:04>    9  ErrMat   0.00002637  MaxEl  0.00001247
 <Jan01-2013> <00:00:04>   10  ErrMat   0.00000048  MaxEl  0.00000030
 <Jan01-2013> <00:00:05>   11  ErrMat   0.00000000  MaxEl  0.00000000
 <Jan01-2013> <00:00:05>  SCF converged
 <Jan01-2013> <00:00:05>   12  ErrMat   0.00000000  MaxEl  0.00000000
 <Jan01-2013> <00:00:05>   Solutions with partially occupied orbitals may not be
 <Jan01-2013> <00:00:05>   lowest in energy. You might consider lowering the
 <Jan01-2013> <00:00:05>   symmetry in the input and explicitly specifying integer
 <Jan01-2013> <00:00:05>   occupations. In that case always check that you obtain
 <Jan01-2013> <00:00:05>   an aufbau solution.
 <Jan01-2013> <00:00:05>  >>>> POPAN
 <Jan01-2013> <00:00:05>  >>>> DEBYE
 <Jan01-2013> <00:00:05>  NORMAL TERMINATION
 <Jan01-2013> <00:00:05>  END
 <Jan01-2013> <00:00:05>  DIRAC 2013.01  RunTime: Jan01-2013 00:00:05  Nodes: 1  Procs: 1
 <Jan01-2013> <00:00:05>  NORMAL TERMINATION
 <Jan01-2013> <00:00:05>  END
 <Jan01-2013> <00:00:05>  ADF 2013.01  RunTime: Jan01-2013 00:00:05  Nodes: 1  Procs: 1
 <Jan01-2013> <00:00:05>  Mercury (TZP, all electron)
 <Jan01-2013> <00:00:05>  RunType   : CREATE
 <Jan01-2013> <00:00:05>  Net Charge: 0 (Nuclei minus Electrons)
 <Jan01-2013> <00:00:05>  Symmetry  : ATOM
  Coordinates
    Atom         X           Y           Z   (Angstrom)
    1.Hg        0.000000    0.000000    0.000000
 <Jan01-2013> <00:00:05>  >>>> CORORT
 <Jan01-2013> <00:00:05>  >>>> FITINT
 <Jan01-2013> <00:00:05>  >>>> CLSMAT
 <Jan01-2013> <00:00:05>  >>>> ORTHON
 <Jan01-2013> <00:00:05>  >>>> GENPT
 <Jan01-2013> <00:00:05>  Acc.Num.Int.=  10.000
 <Jan01-2013> <00:00:05>  Block Length= 123
 <Jan01-2013> <00:00:05>  >>>> PTBAS
 <Jan01-2013> <00:00:06>  >>>> CYCLE
 <Jan01-2013> <00:00:06>    1
 <Jan01-2013> <00:00:06>    2  ErrMat 433.13138663  MaxEl************
 <Jan01-2013> <00:00:06>    3  ErrMat 577.26634882  MaxEl************
 <Jan01-2013> <00:00:06>    4  ErrMat 461.55745835  MaxEl-88.44645804
 <Jan01-2013> <00:00:06>    5  ErrMat 342.34064648  MaxEl-54.27023076
 <Jan01-2013> <00:00:06>    6  ErrMat  35.32723963  MaxEl -6.79698764
 <Jan01-2013> <00:00:06>    7  ErrMat  30.94902949  MaxEl  6.79635552
 <Jan01-2013> <00:00:06>    8  ErrMat   2.50893373  MaxEl -0.51477608
 <Jan01-2013> <00:00:06>    9  ErrMat   3.15044944  MaxEl  0.48536786
 <Jan01-2013> <00:00:06>   10  ErrMat   0.25997222  MaxEl  0.06196610
 <Jan01-2013> <00:00:06>   11  ErrMat   0.03061729  MaxEl -0.00687397
 <Jan01-2013> <00:00:06>   12  ErrMat   0.00101074  MaxEl  0.00016562
 <Jan01-2013> <00:00:06>   13  ErrMat   0.00005685  MaxEl -0.00001225
 <Jan01-2013> <00:00:06>   14  ErrMat   0.00000911  MaxEl  0.00000174
 <Jan01-2013> <00:00:06>   15  ErrMat   0.00000020  MaxEl -0.00000005
 <Jan01-2013> <00:00:06>   16  ErrMat   0.00000001  MaxEl  0.00000000
 <Jan01-2013> <00:00:06>  SCF converged
 <Jan01-2013> <00:00:06>   17  ErrMat   0.00000000  MaxEl  0.00000000
 <Jan01-2013> <00:00:06>  >>>> POPAN
 <Jan01-2013> <00:00:06>  >>>> DEBYE
 <Jan01-2013> <00:00:06>  NORMAL TERMINATION
 <Jan01-2013> <00:00:06>  END
 <Jan01-2013> <00:00:07>  ADF 2013.01  RunTime: Jan01-2013 00:00:07  Nodes: 1  Procs: 2
 <Jan01-2013> <00:00:07>  Annealing ASCEC
 <Jan01-2013> <00:00:07>  RunType   : SINGLE POINT
 <Jan01-2013> <00:00:07>  ERROR DETECTED: (almost) coinciding atoms or point-charges
 <Jan01-2013> <00:00:07>  END
 <Jan01-2013> <00:00:00>  DIRAC 2013.01  RunTime: Jan01-2013 00:00:00  Nodes: 1  Procs: 1
 <Jan01-2013> <00:00:00>  NORMAL TERMINATION
 <Jan01-2013> <00:00:00>  END
 <Jan01-2013> <00:00:00>  ADF 2013.01  RunTime: Jan01-2013 00:00:00  Nodes: 1  Procs: 1
 <Jan01-2013> <00:00:00>  Hydrogen (TZP)
 <Jan01-2013> <00:00:00>  RunType   : CREATE
 <Jan01-2013> <00:00:00>  Net Charge: 0 (Nuclei minus Electrons)
 <Jan01-2013> <00:00:00>  Symmetry  : ATOM
  Coordinates
    Atom         X           Y           Z   (Angstrom)
    1.H         0.000000    0.000000    0.000000
 <Jan01-2013> <00:00:00>  >>>> CORORT
 <Jan01-2013> <00:00:00>  >>>> FITINT
 <Jan01-2013> <00:00:00>  >>>> CLSMAT
 <Jan01-2013> <00:00:00>  >>>> ORTHON
 <Jan01-2013> <00:00:00>  >>>> GENPT
 <Jan01-2013> <00:00:00>  Acc.Num.Int.=  10.000
 <Jan01-2013> <00:00:00>  Block Length=  35
 <Jan01-2013> <00:00:00>  >>>> PTBAS
 <Jan01-2013> <00:00:00>  >>>> CYCLE
 <Jan01-2013> <00:00:00>    1
 <Jan01-2013> <00:00:00>    2  ErrMat   0.00249596  MaxEl -0.00249472
 <Jan01-2013> <00:00:00>    3  ErrMat   0.00062444  MaxEl  0.00061403
 <Jan01-2013> <00:00:00>    4  ErrMat   0.00001581  MaxEl  0.00001400
 <Jan01-2013> <00:00:00>    5  ErrMat   0.00000002  MaxEl -0.00000002
 <Jan01-2013> <00:00:00>    6  ErrMat   0.00000000  MaxEl  0.00000000
 <Jan01-2013> <00:00:00>  SCF converged
 <Jan01-2013> <00:00:00>    7  ErrMat   0.00000000  MaxEl  0.00000000
 <Jan01-2013> <00:00:00>   Solutions with partially occupied orbitals may not be
 <Jan01-2013> <00:00:00>   lowest in energy. You might consider lowering the
 <Jan01-2013> <00:00:00>   symmetry in the input and explicitly specifying integer
 <Jan01-2013> <00:00:00>   occupations. In that case always check that you obtain
 <Jan01-2013> <00:00:00>   an aufbau solution.
 <Jan01-2013> <00:00:00>  >>>> POPAN
 <Jan01-2013> <00:00:00>  >>>> DEBYE
 <Jan01-2013> <00:00:00>  NORMAL TERMINATION
 <Jan01-2013> <00:00:00>  END
 <Jan01-2013> <00:00:00>  DIRAC 2013.01  RunTime: Jan01-2013 00:00:00  Nodes: 1  Procs: 1
 <Jan01-2013> <00:00:00>  NORMAL TERMINATION
 <Jan01-2013> <00:00:00>  END
 <Jan01-2013> <00:00:00>  ADF 2013.01  RunTime: Jan01-2013 00:00:00  Nodes: 1  Procs: 1
 <Jan01-2013> <00:00:00>  Oxygen (TZP)
 <Jan01-2013> <00:00:00>  RunType   : CREATE
 <Jan01-2013> <00:00:00>  Net Charge: 0 (Nuclei minus Electrons)
 <Jan01-2013> <00:00:00>  Symmetry  : ATOM
  Coordinates
    Atom         X           Y           Z   (Angstrom)
    1.O         0.000000    0.000000    0.000000
 <Jan01-2013> <00:00:00>  >>>> CORORT
 <Jan01-2013> <00:00:00>  >>>> FITINT
 <Jan01-2013> <00:00:00>  >>>> CLSMAT
 <Jan01-2013> <00:00:00>  >>>> ORTHON
 <Jan01-2013> <00:00:00>  >>>> GENPT
 <Jan01-2013> <00:00:00>  Acc.Num.Int.=  10.000
 <Jan01-2013> <00:00:00>  Block Length=  58
 <Jan01-2013> <00:00:00>  >>>> PTBAS
 <Jan01-2013> <00:00:00>  >>>> CYCLE
 <Jan01-2013> <00:00:00>    1
 <Jan01-2013> <00:00:00>    2  ErrMat   8.20306701  MaxEl  5.21711031
 <Jan01-2013> <00:00:00>    3  ErrMat   3.42903042  MaxEl -2.40925268
 <Jan01-2013> <00:00:00>    4  ErrMat   2.80462787  MaxEl -1.89873382
 <Jan01-2013> <00:00:00>    5  ErrMat   1.89952944  MaxEl -1.26346350
 <Jan01-2013> <00:00:00>    6  ErrMat   0.19596939  MaxEl -0.10774442
 <Jan01-2013> <00:00:00>    7  ErrMat   0.05108113  MaxEl  0.02731641
 <Jan01-2013> <00:00:00>    8  ErrMat   0.00048208  MaxEl -0.00029995
 <Jan01-2013> <00:00:00>    9  ErrMat   0.00002637  MaxEl  0.00001247
 <Jan01-2013> <00:00:00>   10  ErrMat   0.00000048  MaxEl  0.00000030
 <Jan01-2013> <00:00:00>   11  ErrMat   0.00000000  MaxEl  0.00000000
 <Jan01-2013> <00:00:00>  SCF converged
 <Jan01-2013> <00:00:00>   12  ErrMat   0.00000000  MaxEl  0.00000000
 <Jan01-2013> <00:00:00>   Solutions with partially occupied orbitals may not be
 <Jan01-2013> <00:00:00>   lowest in energy. You might consider lowering the
 <Jan01-2013> <00:00:00>   symmetry in the input and explicitly specifying integer
 <Jan01-2013> <00:00:00>   occupations. In that case always check that you obtain
 <Jan01-2013> <00:00:00>   an aufbau solution.
 <Jan01-2013> <00:00:00>  >>>> POPAN
 <Jan01-2013> <00:00:00>  >>>> DEBYE
 <Jan01-2013> <00:00:00>  NORMAL TERMINATION
 <Jan01-2013> <00:00:00>  END
 <Jan01-2013> <00:00:00>  DIRAC 2013.01  RunTime: Jan01-2013 00:00:00  Nodes: 1  Procs: 1
 <Jan01-2013> <00:00:01>  NORMAL TERMINATION
 <Jan01-2013> <00:00:01>  END
 <Jan01-2013> <00:00:01>  ADF 2013.01  RunTime: Jan01-2013 00:00:01  Nodes: 1  Procs: 1
 <Jan01-2013> <00:00:01>  Mercury (TZP, all electron)
 <Jan01-2013> <00:00:01>  RunType   : CREATE
 <Jan01-2013> <00:00:01>  Net Charge: 0 (Nuclei minus Electrons)
 <Jan01-2013> <00:00:01>  Symmetry  : ATOM
  Coordinates
    Atom         X           Y           Z   (Angstrom)
    1.Hg        0.000000    0.000000    0.000000
 <Jan01-2013> <00:00:01>  >>>> CORORT
 <Jan01-2013> <00:00:01>  >>>> FITINT
 <Jan01-2013> <00:00:01>  >>>> CLSMAT
 <Jan01-2013> <00:00:01>  >>>> ORTHON
 <Jan01-2013> <00:00:01>  >>>> GENPT
 <Jan01-2013> <00:00:01>  Acc.Num.Int.=  10.000
 <Jan01-2013> <00:00:01>  Block Length= 123
 <Jan01-2013> <00:00:01>  >>>> PTBAS
 <Jan01-2013> <00:00:01>  >>>> CYCLE
 <Jan01-2013> <00:00:01>    1
 <Jan01-2013> <00:00:01>    2  ErrMat 433.13138663  MaxEl************
 <Jan01-2013> <00:00:01>    3  ErrMat 577.26634882  MaxEl************
 <Jan01-2013> <00:00:01>    4  ErrMat 461.55745835  MaxEl-88.44645804
 <Jan01-2013> <00:00:01>    5  ErrMat 342.34064648  MaxEl-54.27023076
 <Jan01-2013> <00:00:01>    6  ErrMat  35.32723963  MaxEl -6.79698764
 <Jan01-2013> <00:00:01>    7  ErrMat  30.94902949  MaxEl  6.79635552
 <Jan01-2013> <00:00:01>    8  ErrMat   2.50893373  MaxEl -0.51477608
 <Jan01-2013> <00:00:01>    9  ErrMat   3.15044944  MaxEl  0.48536786
 <Jan01-2013> <00:00:01>   10  ErrMat   0.25997222  MaxEl  0.06196610
 <Jan01-2013> <00:00:01>   11  ErrMat   0.03061729  MaxEl -0.00687397
 <Jan01-2013> <00:00:01>   12  ErrMat   0.00101074  MaxEl  0.00016562
 <Jan01-2013> <00:00:01>   13  ErrMat   0.00005685  MaxEl -0.00001225
 <Jan01-2013> <00:00:01>   14  ErrMat   0.00000911  MaxEl  0.00000174
 <Jan01-2013> <00:00:01>   15  ErrMat   0.00000020  MaxEl -0.00000005
 <Jan01-2013> <00:00:01>   16  ErrMat   0.00000001  MaxEl  0.00000000
 <Jan01-2013> <00:00:01>  SCF converged
 <Jan01-2013> <00:00:01>   17  ErrMat   0.00000000  MaxEl  0.00000000
 <Jan01-2013> <00:00:01>  >>>> POPAN
 <Jan01-2013> <00:00:01>  >>>> DEBYE
 <Jan01-2013> <00:00:01>  NORMAL TERMINATION
 <Jan01-2013> <00:00:01>  END
 <Jan01-2013> <00:00:02>  ADF 2013.01  RunTime: Jan01-2013 00:00:02  Nodes: 1  Procs: 2
 <Jan01-2013> <00:00:02>  Annealing ASCEC
 <Jan01-2013> <00:00:02>  RunType   : SINGLE POINT
 <Jan01-2013> <00:00:03>  Net Charge: 2 (Nuclei minus Electrons)
 <Jan01-2013> <00:00:03>  Symmetry  : NOSYM
 <Jan01-2013> <00:00:03>  >>>> FRAGM
  Coordinates
    Atom         X           Y           Z   (Angstrom)
    1.Hg        0.000000    0.000000    0.000000
    2.H         0.000000    0.753010   -0.475986
    3.O         0.000000    0.000000    0.118997
    4.H         0.000000   -0.753010   -0.475986
    5.H         1.000000    1.753010   -1.475986
    6.O         1.000000    1.000000    1.118997
    7.H         1.000000   -1.753010   -1.475986
    8.Xx       -3.500000   -3.500000   -3.500000
    9.Xx        3.500000   -3.500000   -3.500000
   10.Xx        3.500000    3.500000   -3.500000
   11.Xx        3.500000    3.500000    3.500000
   12.Xx       -3.500000    3.500000   -3.500000
   13.Xx       -3.500000    3.500000    3.500000
   14.Xx       -3.500000   -3.500000    3.500000
   15.Xx        3.500000   -3.500000    3.500000
 <Jan01-2013> <00:00:03>  >>>> CORORT
 <Jan01-2013> <00:00:03>  >>>> FITINT
 <Jan01-2013> <00:00:03>  >>>> CLSMAT
 <Jan01-2013> <00:00:03>  >>>> ORTHON
 <Jan01-2013> <00:00:04>  >>>> GENPT
 <Jan01-2013> <00:00:04>  Acc.Num.Int.=   6.000
 <Jan01-2013> <00:00:04>  Block Length= 128
 <Jan01-2013> <00:00:04>  >>>> PTBAS
 <Jan01-2013> <00:00:05>  >>>> CYCLE
 <Jan01-2013> <00:00:05>    1
 <Jan01-2013> <00:00:06>    2  ErrMat  29.04065860  MaxEl  5.97958262
 <Jan01-2013> <00:00:07>    3  ErrMat  18.72922959  MaxEl  3.88531262
 <Jan01-2013> <00:00:08>    4  ErrMat  12.28663059  MaxEl  2.54633434
 <Jan01-2013> <00:00:10>    5  ErrMat   8.01788022  MaxEl  1.66301770
 <Jan01-2013> <00:00:10>    6  ErrMat   3.26134176  MaxEl -0.88988949
 <Jan01-2013> <00:00:11>    7  ErrMat   1.70934238  MaxEl  0.37838539
 <Jan01-2013> <00:00:12>    8  ErrMat   1.10599104  MaxEl -0.19238678
 <Jan01-2013> <00:00:14>    9  ErrMat   0.71596611  MaxEl -0.14422935
 <Jan01-2013> <00:00:15>   10  ErrMat   0.62600233  MaxEl  0.15464459
 <Jan01-2013> <00:00:16>   11  ErrMat   0.41418196  MaxEl  0.12609605
 <Jan01-2013> <00:00:16>   12  ErrMat   0.13419967  MaxEl  0.04318931
 <Jan01-2013> <00:00:17>   13  ErrMat   0.09978971  MaxEl  0.03198012
 <Jan01-2013> <00:00:19>   14  ErrMat   0.06377889  MaxEl  0.02868608
 <Jan01-2013> <00:00:20>   15  ErrMat   0.02816223  MaxEl  0.01044341
 <Jan01-2013> <00:00:21>   16  ErrMat   0.03887246  MaxEl  0.01362524
 <Jan01-2013> <00:00:21>   17  ErrMat   0.02066019  MaxEl -0.00593698
 <Jan01-2013> <00:00:22>   18  ErrMat   0.00943622  MaxEl -0.00264400
 <Jan01-2013> <00:00:24>   19  ErrMat   0.00274109  MaxEl  0.00087554
 <Jan01-2013> <00:00:25>   20  ErrMat   0.00144613  MaxEl  0.00063812
 <Jan01-2013> <00:00:26>   21  ErrMat   0.00051910  MaxEl -0.00019564
 <Jan01-2013> <00:00:26>   22  ErrMat   0.00054053  MaxEl  0.00020803
 <Jan01-2013> <00:00:27>   23  ErrMat   0.00030507  MaxEl -0.00009003
 <Jan01-2013> <00:00:29>   24  ErrMat   0.00009001  MaxEl  0.00002769
 <Jan01-2013> <00:00:30>   25  ErrMat   0.00008944  MaxEl  0.00002961
 <Jan01-2013> <00:00:31>   26  ErrMat   0.00004158  MaxEl  0.00001112
 <Jan01-2013> <00:00:32>   27  ErrMat   0.00001280  MaxEl  0.00000271
 <Jan01-2013> <00:00:32>   28  ErrMat   0.00000481  MaxEl -0.00000158
 <Jan01-2013> <00:00:35>   29  ErrMat   0.00000128  MaxEl  0.00000030
 <Jan01-2013> <00:00:35>  SCF converged
 <Jan01-2013> <00:00:35>   30  ErrMat   0.00000046  MaxEl  0.00000012
 <Jan01-2013> <00:00:35>  remark: FIT not very accurate
 <Jan01-2013> <00:00:36>  >>>> TOTEN
 <Jan01-2013> <00:00:41>  >>>> POPAN
 <Jan01-2013> <00:00:41>  >>>> DEBYE
 <Jan01-2013> <00:00:41>  >>>> AMETS
 <Jan01-2013> <00:00:41>   Bond Energy        1028.69236020 a.u.
 <Jan01-2013> <00:00:41>   Bond Energy       27992.14337118 eV
 <Jan01-2013> <00:00:41>   Bond Energy      645514.27       kcal/mol
 <Jan01-2013> <00:00:41>  >>>> POPUL
 <Jan01-2013> <00:00:42>  NORMAL TERMINATION
 <Jan01-2013> <00:00:42>  END
