 Entering Gaussian System, Link 0=g03
 Input=anneal.com
 Output=anneal.log
 Initial command:
 /usr/src/gaussian/g03/l1.exe /home/scratch/gaussian/danian/Gau-19887.inp -scrdir=/home/scratch/gaussian/danian/
 Entering Link 1 = /usr/src/gaussian/g03/l1.exe PID=     19889.
  
 Copyright (c) 1988,1990,1992,1993,1995,1998,2003,2004, Gaussian, Inc.
                  All Rights Reserved.
  
 This is the Gaussian(R) 03 program.  It is based on the
 the Gaussian(R) 98 system (copyright 1998, Gaussian, Inc.),
 the Gaussian(R) 94 system (copyright 1995, Gaussian, Inc.),
 the Gaussian 92(TM) system (copyright 1992, Gaussian, Inc.),
 the Gaussian 90(TM) system (copyright 1990, Gaussian, Inc.),
 the Gaussian 88(TM) system (copyright 1988, Gaussian, Inc.),
 the Gaussian 86(TM) system (copyright 1986, Carnegie Mellon
 University), and the Gaussian 82(TM) system (copyright 1983,
 Carnegie Mellon University). Gaussian is a federally registered
 trademark of Gaussian, Inc.
  
 This software contains proprietary and confidential information,
 including trade secrets, belonging to Gaussian, Inc.
  
 This software is provided under written license and may be
 used, copied, transmitted, or stored only in accord with that
 written license.
  
 The following legend is applicable only to US Government
 contracts under FAR:
  
                    RESTRICTED RIGHTS LEGEND
  
 Use, reproduction and disclosure by the US Government is
 subject to restrictions as set forth in subparagraphs (a)
 and (c) of the Commercial Computer Software - Restricted
 Rights clause in FAR 52.227-19.
  
 Gaussian, Inc.
 340 Quinnipiac St., Bldg. 40, Wallingford CT 06492
  
  
 ---------------------------------------------------------------
 Warning -- This program may not be used in any manner that
 competes with the business of Gaussian, Inc. or will provide
 assistance to any competitor of Gaussian, Inc.  The licensee
 of this program is prohibited from giving any competitor of
 Gaussian, Inc. access to this program.  By using this program,
 the user acknowledges that Gaussian, Inc. is engaged in the
 business of creating and licensing software in the field of
 computational chemistry and represents and warrants to the
 licensee that it is not a competitor of Gaussian, Inc. and that
 it will not use this program in any manner prohibited above.
 ---------------------------------------------------------------
  

 Cite this work as:
 Gaussian 03, Revision D.01,
 M. J. Frisch, G. W. Trucks, H. B. Schlegel, G. E. Scuseria, 
 M. A. Robb, J. R. Cheeseman, J. A. Montgomery, Jr., T. Vreven, 
 K. N. Kudin, J. C. Burant, J. M. Millam, S. S. Iyengar, J. Tomasi, 
 V. Barone, B. Mennucci, M. Cossi, G. Scalmani, N. Rega, 
 G. A. Petersson, H. Nakatsuji, M. Hada, M. Ehara, K. Toyota, 
 R. Fukuda, J. Hasegawa, M. Ishida, T. Nakajima, Y. Honda, O. Kitao, 
 H. Nakai, M. Klene, X. Li, J. E. Knox, H. P. Hratchian, J. B. Cross, 
 V. Bakken, C. Adamo, J. Jaramillo, R. Gomperts, R. E. Stratmann, 
 O. Yazyev, A. J. Austin, R. Cammi, C. Pomelli, J. W. Ochterski, 
 P. Y. Ayala, K. Morokuma, G. A. Voth, P. Salvador, J. J. Dannenberg, 
 V. G. Zakrzewski, S. Dapprich, A. D. Daniels, M. C. Strain, 
 O. Farkas, D. K. Malick, A. D. Rabuck, K. Raghavachari, 
 J. B. Foresman, J. V. Ortiz, Q. Cui, A. G. Baboul, S. Clifford, 
 J. Cioslowski, B. B. Stefanov, G. Liu, A. Liashenko, P. Piskorz, 
 I. Komaromi, R. L. Martin, D. J. Fox, T. Keith, M. A. Al-Laham, 
 C. Y. Peng, A. Nanayakkara, M. Challacombe, P. M. W. Gill, 
 B. Johnson, W. Chen, M. W. Wong, C. Gonzalez, and J. A. Pople, 
 Gaussian, Inc., Wallingford CT, 2004.
 
 ******************************************
 Gaussian 03:  IA32L-G03RevD.01 13-Oct-2005
                19-Jan-2015 
 ******************************************
 %nproc= 4
 Will use up to    4 processors via shared memory.
 -----------
 # hf sto-3g
 -----------
 1/38=1/1;
 2/17=6,18=5,40=1/2;
 3/6=3,11=9,16=1,25=1,30=1/1,2,3;
 4//1;
 5/5=2,32=1,38=5/2;
 6/7=2,8=2,9=2,10=2,28=1/1;
 99/5=1,9=1/99;
 ---------
 Annealing
 ---------
 Symbolic Z-matrix:
 Charge =  0 Multiplicity = 1
 1                    0     2.4858    0.76963   0.66591 
 8                    0     2.82079   1.25578   1.42252 
 1                    0     3.75637   1.04199   1.4272 
 1                    0     0.14392  -0.4361   -2.9187 
 8                    0     0.83989  -0.15594  -2.32023 
 1                    0     0.84998  -0.84576  -1.65309 
 x                    0    -3.5      -3.5      -3.5 
 x                    0     3.5      -3.5      -3.5 
 x                    0     3.5       3.5      -3.5 
 x                    0     3.5       3.5       3.5 
 x                    0    -3.5       3.5      -3.5 
 x                    0    -3.5       3.5       3.5 
 x                    0    -3.5      -3.5       3.5 
 x                    0     3.5      -3.5       3.5 
 
                          Input orientation:                          
 ---------------------------------------------------------------------
 Center     Atomic     Atomic              Coordinates (Angstroms)
 Number     Number      Type              X           Y           Z
 ---------------------------------------------------------------------
    1          1             0        2.485802    0.769629    0.665906
    2          8             0        2.820793    1.255776    1.422524
    3          1             0        3.756370    1.041994    1.427200
    4          1             0        0.143922   -0.436100   -2.918703
    5          8             0        0.839889   -0.155937   -2.320232
    6          1             0        0.849977   -0.845759   -1.653095
 ---------------------------------------------------------------------
                    Distance matrix (angstroms):
                    1          2          3          4          5
     1  H    0.000000
     2  O    0.959702   0.000000
     3  H    1.506020   0.959702   0.000000
     4  H    4.448326   5.373484   5.841354   0.000000
     5  O    3.533089   4.463758   4.897361   0.959702   0.000000
     6  H    3.265450   4.214261   4.636696   1.506020   0.959702
                    6
     6  H    0.000000
 Stoichiometry    H4O2
 Framework group  C1[X(H4O2)]
 Deg. of freedom    12
 Full point group                 C1
 Largest Abelian subgroup         C1      NOp   1
 Largest concise Abelian subgroup C1      NOp   1
                         Standard orientation:                         
 ---------------------------------------------------------------------
 Center     Atomic     Atomic              Coordinates (Angstroms)
 Number     Number      Type              X           Y           Z
 ---------------------------------------------------------------------
    1          1             0       -1.352299    0.110497    0.079212
    2          8             0       -2.286919   -0.105512    0.049976
    3          1             0       -2.668421    0.625465   -0.441102
    4          1             0        3.084934   -0.196164    0.146477
    5          8             0        2.173564   -0.025493   -0.101121
    6          1             0        1.842626    0.508243    0.624575
 ---------------------------------------------------------------------
 Rotational constants (GHZ):    310.1551471      2.7759647      2.7747579
 Standard basis: STO-3G (5D, 7F)
 There are    14 symmetry adapted basis functions of A   symmetry.
 Integral buffers will be    262144 words long.
 Raffenetti 1 integral format.
 Two-electron integral symmetry is turned on.
    14 basis functions,    42 primitive gaussians,    14 cartesian basis functions
    10 alpha electrons       10 beta electrons
       nuclear repulsion energy        30.2754017590 Hartrees.
 NAtoms=    6 NActive=    6 NUniq=    6 SFac= 7.50D-01 NAtFMM=   80 NAOKFM=F Big=F
 One-electron integrals computed using PRISM.
 NBasis=    14 RedAO= T  NBF=    14
 NBsUse=    14 1.00D-06 NBFU=    14
 Harris functional with IExCor=  205 diagonalized for initial guess.
 ExpMin= 1.69D-01 ExpMax= 1.31D+02 ExpMxC= 1.31D+02 IAcc=1 IRadAn=         1 AccDes= 1.00D-06
 HarFok:  IExCor= 205 AccDes= 1.00D-06 IRadAn=         1 IDoV=1
 ScaDFX=  1.000000  1.000000  1.000000  1.000000
 Initial guess orbital symmetries:
       Occupied  (A) (A) (A) (A) (A) (A) (A) (A) (A) (A)
       Virtual   (A) (A) (A) (A)
 The electronic state of the initial guess is 1-A.
 Warning!  Cutoffs for single-point calculations used.
 Requested convergence on RMS density matrix=1.00D-04 within 128 cycles.
 Requested convergence on MAX density matrix=1.00D-02.
 Requested convergence on             energy=5.00D-05.
 No special actions if energy rises.
 Keep R1 integrals in memory in canonical form, NReq=      825917.
 Convergence on energy, delta-E=-2.18D-05
 SCF Done:  E(RHF) =  -149.927467112     A.U. after    4 cycles
             Convg  =    0.1027D-03             -V/T =  2.0051
             S**2   =   0.0000

 **********************************************************************

            Population analysis using the SCF density.

 **********************************************************************

 Orbital symmetries:
       Occupied  (A) (A) (A) (A) (A) (A) (A) (A) (A) (A)
       Virtual   (A) (A) (A) (A)
 The electronic state is 1-A.
 Alpha  occ. eigenvalues --  -20.24924 -20.23912  -1.27428  -1.26423  -0.62088
 Alpha  occ. eigenvalues --   -0.61027  -0.46153  -0.45137  -0.39773  -0.38774
 Alpha virt. eigenvalues --    0.59570   0.61314   0.72869   0.74287
          Condensed to atoms (all electrons):
              1          2          3          4          5          6
     1  H    0.602611   0.263080  -0.048492   0.000000   0.000003   0.000002
     2  O    0.263080   7.837337   0.262628   0.000000   0.000000  -0.000001
     3  H   -0.048492   0.262628   0.605635   0.000000   0.000000   0.000000
     4  H    0.000000   0.000000   0.000000   0.601233   0.263461  -0.048471
     5  O    0.000003   0.000000   0.000000   0.263461   7.837279   0.262356
     6  H    0.000002  -0.000001   0.000000  -0.048471   0.262356   0.606773
 Mulliken atomic charges:
              1
     1  H    0.182796
     2  O   -0.363044
     3  H    0.180229
     4  H    0.183777
     5  O   -0.363099
     6  H    0.179341
 Sum of Mulliken charges=   0.00000
 Atomic charges with hydrogens summed into heavy atoms:
              1
     1  H    0.000000
     2  O   -0.000019
     3  H    0.000000
     4  H    0.000000
     5  O    0.000019
     6  H    0.000000
 Sum of Mulliken charges=   0.00000
 Electronic spatial extent (au):  <R**2>=   391.2972
 Charge=     0.0000 electrons
 Dipole moment (field-independent basis, Debye):
    X=     1.6739    Y=     1.8961    Z=     0.7428  Tot=     2.6361
 Quadrupole moment (field-independent basis, Debye-Ang):
   XX=    -9.1847   YY=   -11.1208   ZZ=   -11.2488
   XY=    -2.7007   XZ=     4.8734   YZ=     0.0331
 Traceless Quadrupole moment (field-independent basis, Debye-Ang):
   XX=     1.3334   YY=    -0.6027   ZZ=    -0.7307
   XY=    -2.7007   XZ=     4.8734   YZ=     0.0331
 Octapole moment (field-independent basis, Debye-Ang**2):
  XXX=    25.3731  YYY=     0.3557  ZZZ=     0.1513  XYY=    -0.6159
  XXY=     8.2719  XXZ=     1.4365  XZZ=     0.5332  YZZ=     0.3079
  YYZ=     0.0044  XYZ=     1.8828
 Hexadecapole moment (field-independent basis, Debye-Ang**3):
 XXXX=  -290.3861 YYYY=    -8.8975 ZZZZ=    -8.6301 XXXY=   -23.2080
 XXXZ=    28.2448 YYYX=    -0.4227 YYYZ=    -0.0678 ZZZX=     0.6556
 ZZZY=     0.1074 XXYY=   -58.5106 XXZZ=   -59.8076 YYZZ=    -2.7540
 XXYZ=    -1.1128 YYXZ=     0.7751 ZZXY=    -0.0166
 N-N= 3.027540175905D+01 E-N=-4.176610663628D+02  KE= 1.491685449250D+02
 1\1\GINC-140028\SP\RHF\STO-3G\H4O2\DANIAN\19-Jan-2015\0\\# hf sto-3g\\
 Annealing\\0,1\H,0,2.4858015822,0.7696292149,0.6659058037\O,0,2.820793
 1781,1.2557756694,1.4225239939\H,0,3.756370085,1.0419935095,1.42720049
 76\H,0,0.1439220141,-0.4361003116,-2.9187025371\O,0,0.8398893448,-0.15
 59366955,-2.3202322762\H,0,0.8499767355,-0.8457589622,-1.6530948725\X,
 0,-3.5,-3.5,-3.5\X,0,3.5,-3.5,-3.5\X,0,3.5,3.5,-3.5\X,0,3.5,3.5,3.5\X,
 0,-3.5,3.5,-3.5\X,0,-3.5,3.5,3.5\X,0,-3.5,-3.5,3.5\X,0,3.5,-3.5,3.5\\V
 ersion=IA32L-G03RevD.01\State=1-A\HF=-149.9274671\RMSD=1.027e-04\Therm
 al=0.\Dipole=-0.0554573,-0.9555818,-0.3992383\PG=C01 [X(H4O2)]\\@


 I HAVE NOT FAILED, I HAVE ONLY DISCOVERED 10,000
 WAYS THAT DIDN'T WORK.  -- THOMAS A. EDISON
 Job cpu time:  0 days  0 hours  0 minutes  1.0 seconds.
 File lengths (MBytes):  RWF=     11 Int=      0 D2E=      0 Chk=      7 Scr=      1
 Normal termination of Gaussian 03 at Mon Jan 19 08:48:34 2015.
