 argument  1 = anneal.nw



============================== echo of input deck ==============================
 echo

 start anneal

 scratch_dir /home/scratch/nwchem/danian

 memory stack 500 mb heap 100 mb global 1000 mb

 title "Annealing"
 charge            0

 geometry units angstroms print xyz autosym
 Au  -0.21069952022322094       -1.0650636553904420        3.1866764889028611
 Li   0.45788998176061491       -2.5209681139951314        2.7919230402136939
 Xx    -10.000000000000000       -10.000000000000000       -10.000000000000000
 Xx     10.000000000000000       -10.000000000000000       -10.000000000000000
 Xx     10.000000000000000        10.000000000000000       -10.000000000000000
 Xx     10.000000000000000        10.000000000000000        10.000000000000000
 Xx    -10.000000000000000        10.000000000000000       -10.000000000000000
 Xx    -10.000000000000000        10.000000000000000        10.000000000000000
 Xx    -10.000000000000000       -10.000000000000000        10.000000000000000
 Xx     10.000000000000000       -10.000000000000000        10.000000000000000
 end

 basis
 Au library lanl2dz_ecp
 Li library sto-3g
 end

 ecp
 Au library lanl2dz_ecp
 end

 scf
 SINGLET
 end

 task scf energy
================================================================================


                                         
                                         


              Northwest Computational Chemistry Package (NWChem) 6.3
              ------------------------------------------------------


                    Environmental Molecular Sciences Laboratory
                       Pacific Northwest National Laboratory
                                Richland, WA 99352

                              Copyright (c) 1994-2012
                       Pacific Northwest National Laboratory
                            Battelle Memorial Institute

             NWChem is an open-source computational chemistry package
                        distributed under the terms of the
                      Educational Community License (ECL) 2.0
             A copy of the license is included with this distribution
                              in the LICENSE.TXT file

                                  ACKNOWLEDGMENT
                                  --------------

            This software and its documentation were developed at the
            EMSL at Pacific Northwest National Laboratory, a multiprogram
            national laboratory, operated for the U.S. Department of Energy
            by Battelle under Contract Number DE-AC05-76RL01830. Support
            for this work was provided by the Department of Energy Office
            of Biological and Environmental Research, Office of Basic
            Energy Sciences, and the Office of Advanced Scientific Computing.


           Job information
           ---------------

    hostname        = 140028
    program         = nwchem
    date            = Sat Jan 17 15:19:54 2015

    compiled        = Sun_Dec_22_04:02:59_2013
    source          = /build/buildd/nwchem-6.3+r1
    nwchem branch   = 6.3
    nwchem revision = 24277
    ga revision     = 10379
    input           = anneal.nw
    prefix          = anneal.
    data base       = ./anneal.db
    status          = startup
    nproc           =        8
    time left       =     -1s



           Memory information
           ------------------

    heap     =   13107201 doubles =    100.0 Mbytes
    stack    =   65536001 doubles =    500.0 Mbytes
    global   =  131072000 doubles =   1000.0 Mbytes (distinct from heap & stack)
    total    =  209715202 doubles =   1600.0 Mbytes
    verify   = yes
    hardfail = no 


           Directory information
           ---------------------

  0 permanent = .
  0 scratch   = /home/scratch/nwchem/danian




                                NWChem Input Module
                                -------------------


                                     Annealing
                                     ---------

 Scaling coordinates for geometry "geometry" by  1.889725989
 (inverse scale =  0.529177249)

 ORDER OF PRIMARY AXIS IS BEING SET TO 4
 C1  symmetry detected

          ------
          auto-z
          ------
  autoz: The atoms group into disjoint clusters
 cluster   1:    1    2
 cluster   2:    3
 cluster   3:    4
 cluster   4:    5
 cluster   5:    6
 cluster   6:    7
 cluster   7:    8
 cluster   8:    9
 cluster   9:   10
     1 autoz failed with cvr_scaling = 1.2 changing to 1.3
  autoz: The atoms group into disjoint clusters
 cluster   1:    1    2
 cluster   2:    3
 cluster   3:    4
 cluster   4:    5
 cluster   5:    6
 cluster   6:    7
 cluster   7:    8
 cluster   8:    9
 cluster   9:   10
 Clusters   1   8 closest atoms are    2    9 r =14.74 ... close but too far?
 Clusters   1   9 closest atoms are    2   10 r =14.10 ... close but too far?
     2 autoz failed with cvr_scaling = 1.3 changing to 1.4
  autoz: The atoms group into disjoint clusters
 cluster   1:    1    2
 cluster   2:    3
 cluster   3:    4
 cluster   4:    5
 cluster   5:    6
 cluster   6:    7
 cluster   7:    8
 cluster   8:    9
 cluster   9:   10
 Clusters   1   8 closest atoms are    2    9 r =14.74 ... close but too far?
 Clusters   1   9 closest atoms are    2   10 r =14.10 ... close but too far?
     3 autoz failed with cvr_scaling = 1.4 changing to 1.5
  autoz: The atoms group into disjoint clusters
 cluster   1:    1    2
 cluster   2:    3
 cluster   3:    4
 cluster   4:    5
 cluster   5:    6
 cluster   6:    7
 cluster   7:    8
 cluster   8:    9
 cluster   9:   10
 Clusters   1   5 closest atoms are    1    6 r =16.53 ... close but too far?
 Clusters   1   7 closest atoms are    1    8 r =16.27 ... close but too far?
 Connecting clusters   1   8 via atoms    2    9 r =14.74
 Connecting clusters   1   9 via atoms    2   10 r =14.10
  autoz: regenerating connections with new bonds
  autoz: The atoms group into disjoint clusters
 cluster   1:    1    2    9   10
 cluster   2:    3
 cluster   3:    4
 cluster   4:    5
 cluster   5:    6
 cluster   6:    7
 cluster   7:    8
 Clusters   1   5 closest atoms are    1    6 r =16.53 ... close but too far?
 Clusters   1   7 closest atoms are    1    8 r =16.27 ... close but too far?
     5 autoz failed with cvr_scaling = 1.5 changing to 1.6
  autoz: The atoms group into disjoint clusters
 cluster   1:    1    2
 cluster   2:    3
 cluster   3:    4
 cluster   4:    5
 cluster   5:    6
 cluster   6:    7
 cluster   7:    8
 cluster   8:    9
 cluster   9:   10
 Clusters   1   3 closest atoms are    2    4 r =17.62 ... close but too far?
 Clusters   1   5 closest atoms are    1    6 r =16.53 ... close but too far?
 Clusters   1   7 closest atoms are    1    8 r =16.27 ... close but too far?
 Connecting clusters   1   8 via atoms    2    9 r =14.74
 Connecting clusters   1   9 via atoms    2   10 r =14.10
 Clusters   2   3 closest atoms are    3    4 r =20.00 ... close but too far?
 Clusters   2   6 closest atoms are    3    7 r =20.00 ... close but too far?
 Clusters   2   8 closest atoms are    3    9 r =20.00 ... close but too far?
 Clusters   3   4 closest atoms are    4    5 r =20.00 ... close but too far?
 Clusters   3   9 closest atoms are    4   10 r =20.00 ... close but too far?
 Clusters   4   5 closest atoms are    5    6 r =20.00 ... close but too far?
 Clusters   4   6 closest atoms are    5    7 r =20.00 ... close but too far?
 Clusters   5   7 closest atoms are    6    8 r =20.00 ... close but too far?
 Clusters   5   9 closest atoms are    6   10 r =20.00 ... close but too far?
 Clusters   6   7 closest atoms are    7    8 r =20.00 ... close but too far?
 Clusters   7   8 closest atoms are    8    9 r =20.00 ... close but too far?
 Clusters   8   9 closest atoms are    9   10 r =20.00 ... close but too far?
  autoz: regenerating connections with new bonds
  autoz: The atoms group into disjoint clusters
 cluster   1:    1    2    9   10
 cluster   2:    3
 cluster   3:    4
 cluster   4:    5
 cluster   5:    6
 cluster   6:    7
 cluster   7:    8
 Clusters   1   3 closest atoms are    2    4 r =17.62 ... close but too far?
 Clusters   1   5 closest atoms are    1    6 r =16.53 ... close but too far?
 Clusters   1   7 closest atoms are    1    8 r =16.27 ... close but too far?
 Clusters   2   3 closest atoms are    3    4 r =20.00 ... close but too far?
 Clusters   2   6 closest atoms are    3    7 r =20.00 ... close but too far?
 Clusters   3   4 closest atoms are    4    5 r =20.00 ... close but too far?
 Clusters   4   5 closest atoms are    5    6 r =20.00 ... close but too far?
 Clusters   4   6 closest atoms are    5    7 r =20.00 ... close but too far?
 Clusters   5   7 closest atoms are    6    8 r =20.00 ... close but too far?
 Clusters   6   7 closest atoms are    7    8 r =20.00 ... close but too far?
     7 autoz failed with cvr_scaling = 1.6 changing to 1.7
  autoz: The atoms group into disjoint clusters
 cluster   1:    1    2
 cluster   2:    3
 cluster   3:    4
 cluster   4:    5
 cluster   5:    6
 cluster   6:    7
 cluster   7:    8
 cluster   8:    9
 cluster   9:   10
 Clusters   1   2 closest atoms are    2    3 r =18.14 ... close but too far?
 Clusters   1   3 closest atoms are    2    4 r =17.62 ... close but too far?
 Connecting clusters   1   5 via atoms    1    6 r =16.53
 Connecting clusters   1   7 via atoms    1    8 r =16.27
 Connecting clusters   1   8 via atoms    2    9 r =14.74
 Connecting clusters   1   9 via atoms    2   10 r =14.10
 Connecting clusters   2   3 via atoms    3    4 r =20.00
 Connecting clusters   2   6 via atoms    3    7 r =20.00
 Connecting clusters   2   8 via atoms    3    9 r =20.00
 Connecting clusters   3   4 via atoms    4    5 r =20.00
 Connecting clusters   3   9 via atoms    4   10 r =20.00
 Connecting clusters   4   5 via atoms    5    6 r =20.00
 Connecting clusters   4   6 via atoms    5    7 r =20.00
 Connecting clusters   5   7 via atoms    6    8 r =20.00
 Connecting clusters   5   9 via atoms    6   10 r =20.00
 Connecting clusters   6   7 via atoms    7    8 r =20.00
 Connecting clusters   7   8 via atoms    8    9 r =20.00
 Connecting clusters   8   9 via atoms    9   10 r =20.00
  autoz: regenerating connections with new bonds


                             Geometry "geometry" -> ""
                             -------------------------

 Output coordinates in angstroms (scale by  1.889725989 to convert to a.u.)

  No.       Tag          Charge          X              Y              Z
 ---- ---------------- ---------- -------------- -------------- --------------
    1 Au                  79.0000     0.00000000     0.06036585     0.00000000
    2 Li                   3.0000     0.00000000    -1.58963415    -0.00000000
    3 Xx                   0.0000    17.30716879    -7.01168030     0.00000000
    4 Xx                   0.0000     2.68324680   -15.11579547    10.97561948
    5 Xx                   0.0000    -0.43083952     2.53153130    19.85674127
    6 Xx                   0.0000   -13.71403838     7.31642158     5.69123906
    7 Xx                   0.0000    14.19308247    10.63564647     8.88112179
    8 Xx                   0.0000     0.90988360    15.42053676    -5.28438042
    9 Xx                   0.0000     4.02396992    -2.22679001   -14.16550221
   10 Xx                   0.0000   -10.59995207   -10.33090519    -3.18988273

      Atomic Mass 
      ----------- 

      Au               196.966600
      Li                 7.016000


 Effective nuclear repulsion energy (a.u.)      76.0090957654

            Nuclear Dipole moment (a.u.) 
            ----------------------------
        X                 Y               Z
 ---------------- ---------------- ----------------
     0.0000000000    -0.0000000000    -0.0000000000



                                Z-matrix (autoz)
                                -------- 

 Units are Angstrom for bonds and degrees for angles

      Type          Name      I     J     K     L     M      Value
      ----------- --------  ----- ----- ----- ----- ----- ----------
    1 Stretch                  1     6                      16.52620
    2 Stretch                  1     8                      16.26921
    3 Stretch                  1     2                       1.65000
    4 Stretch                  2     9                      14.73973
    5 Stretch                  2    10                      14.10475
    6 Stretch                  3     4                      20.00000
    7 Stretch                  3     7                      20.00000
    8 Stretch                  3     9                      20.00000
    9 Stretch                  4     5                      20.00000
   10 Stretch                  4    10                      20.00000
   11 Stretch                  5     6                      20.00000
   12 Stretch                  5     7                      20.00000
   13 Stretch                  6     8                      20.00000
   14 Stretch                  6    10                      20.00000
   15 Stretch                  7     8                      20.00000
   16 Stretch                  8     9                      20.00000
   17 Stretch                  9    10                      20.00000
   18 Bend                     1     6     5                65.65224
   19 Bend                     1     6     8                51.84077
   20 Bend                     1     6    10                47.96792
   21 Bend                     1     8     6                53.00775
   22 Bend                     1     8     7                65.24202
   23 Bend                     1     8     9                47.14677
   24 Bend                     1     2     9                92.47750
   25 Bend                     1     2    10               128.29709
   26 Bend                     2     9     3                60.72358
   27 Bend                     2     9     8                59.50879
   28 Bend                     2     9    10                44.80548
   29 Bend                     2    10     4                59.26696
   30 Bend                     2    10     6                57.97773
   31 Bend                     2    10     9                47.42792
   32 Bend                     2     1     6               116.04416
   33 Bend                     2     1     8               160.75622
   34 Bend                     3     4     5                90.00000
   35 Bend                     3     4    10                90.00000
   36 Bend                     3     7     5                90.00000
   37 Bend                     3     7     8                90.00000
   38 Bend                     3     9     8                90.00000
   39 Bend                     3     9    10                90.00000
   40 Bend                     4     3     7                90.00000
   41 Bend                     4     3     9                90.00000
   42 Bend                     4     5     6                90.00000
   43 Bend                     4     5     7                90.00000
   44 Bend                     4    10     6                90.00000
   45 Bend                     4    10     9                90.00000
   46 Bend                     5     4    10                90.00000
   47 Bend                     5     6     8                90.00000
   48 Bend                     5     6    10                90.00000
   49 Bend                     5     7     8                90.00000
   50 Bend                     6     1     8                75.15148
   51 Bend                     6     5     7                90.00000
   52 Bend                     6     8     7                90.00000
   53 Bend                     6     8     9                90.00000
   54 Bend                     6    10     9                90.00000
   55 Bend                     7     3     9                90.00000
   56 Bend                     7     8     9                90.00000
   57 Bend                     8     6    10                90.00000
   58 Bend                     8     9    10                90.00000
   59 Bend                     9     2    10                87.76660
   60 Torsion                  1     6     5     4         -42.70043
   61 Torsion                  1     6     5     7          47.29957
   62 Torsion                  1     6     8     7         -58.37728
   63 Torsion                  1     6     8     9          31.62272
   64 Torsion                  1     6    10     2           3.35316
   65 Torsion                  1     6    10     4          56.28589
   66 Torsion                  1     6    10     9         -33.71411
   67 Torsion                  1     8     6     5          58.37728
   68 Torsion                  1     8     6    10         -31.62272
   69 Torsion                  1     8     7     3          41.49930
   70 Torsion                  1     8     7     5         -48.50070
   71 Torsion                  1     8     9     2           0.26133
   72 Torsion                  1     8     9     3         -55.16220
   73 Torsion                  1     8     9    10          34.83780
   74 Torsion                  1     2     9     3         107.38504
   75 Torsion                  1     2     9     8          -1.89115
   76 Torsion                  1     2     9    10        -128.25068
   77 Torsion                  1     2    10     4        -145.50150
   78 Torsion                  1     2    10     6         -33.67302
   79 Torsion                  1     2    10     9          91.39383
   80 Torsion                  2     9     3     4          35.57072
   81 Torsion                  2     9     3     7         -54.42928
   82 Torsion                  2     9     8     6         -34.57647
   83 Torsion                  2     9     8     7          55.42353
   84 Torsion                  2     9    10     4         -46.05690
   85 Torsion                  2     9    10     6          43.94310
   86 Torsion                  2    10     4     3         -38.08907
   87 Torsion                  2    10     4     5          51.91093
   88 Torsion                  2    10     6     5         -52.93273
   89 Torsion                  2    10     6     8          37.06727
   90 Torsion                  2    10     9     3          46.05690
   91 Torsion                  2    10     9     8         -43.94310
   92 Torsion                  2     1     6     5          85.92064
   93 Torsion                  2     1     6     8        -163.25049
   94 Torsion                  2     1     6    10         -28.15304
   95 Torsion                  2     1     8     6         128.22385
   96 Torsion                  2     1     8     7        -121.44640
   97 Torsion                  2     1     8     9          -6.11524
   98 Torsion                  3     4     5     6          90.00000
   99 Torsion                  3     4     5     7          -0.00000
  100 Torsion                  3     4    10     6         -90.00000
  101 Torsion                  3     4    10     9           0.00000
  102 Torsion                  3     7     5     4           0.00000
  103 Torsion                  3     7     5     6         -90.00000
  104 Torsion                  3     7     8     6          90.00000
  105 Torsion                  3     7     8     9          -0.00000
  106 Torsion                  3     9     2    10        -124.36428
  107 Torsion                  3     9     8     6         -90.00000
  108 Torsion                  3     9     8     7           0.00000
  109 Torsion                  3     9    10     4          -0.00000
  110 Torsion                  3     9    10     6          90.00000
  111 Torsion                  4     3     7     5          -0.00000
  112 Torsion                  4     3     7     8         -90.00000
  113 Torsion                  4     3     9     8          90.00000
  114 Torsion                  4     3     9    10           0.00000
  115 Torsion                  4     5     6     8         -90.00000
  116 Torsion                  4     5     6    10           0.00000
  117 Torsion                  4     5     7     8          90.00000
  118 Torsion                  4    10     2     9         123.10467
  119 Torsion                  4    10     6     5           0.00000
  120 Torsion                  4    10     6     8          90.00000
  121 Torsion                  4    10     9     8         -90.00000
  122 Torsion                  5     4     3     7           0.00000
  123 Torsion                  5     4     3     9         -90.00000
  124 Torsion                  5     4    10     6           0.00000
  125 Torsion                  5     4    10     9          90.00000
  126 Torsion                  5     6     1     8        -110.82888
  127 Torsion                  5     6     8     7           0.00000
  128 Torsion                  5     6     8     9          90.00000
  129 Torsion                  5     6    10     9         -90.00000
  130 Torsion                  5     7     3     9          90.00000
  131 Torsion                  5     7     8     6          -0.00000
  132 Torsion                  5     7     8     9         -90.00000
  133 Torsion                  6     1     8     7         110.32975
  134 Torsion                  6     1     8     9        -134.33909
  135 Torsion                  6     1     2     9         128.39631
  136 Torsion                  6     1     2    10          39.28645
  137 Torsion                  6     5     4    10           0.00000
  138 Torsion                  6     5     7     8           0.00000
  139 Torsion                  6     8     9    10          -0.00000
  140 Torsion                  6    10     2     9        -125.06685
  141 Torsion                  6    10     9     8           0.00000
  142 Torsion                  7     3     4    10          90.00000
  143 Torsion                  7     3     9     8          -0.00000
  144 Torsion                  7     3     9    10         -90.00000
  145 Torsion                  7     5     4    10         -90.00000
  146 Torsion                  7     5     6     8           0.00000
  147 Torsion                  7     5     6    10          90.00000
  148 Torsion                  7     8     6    10         -90.00000
  149 Torsion                  7     8     9    10          90.00000
  150 Torsion                  8     1     6    10         135.09745
  151 Torsion                  8     1     2     9           6.08857
  152 Torsion                  8     1     2    10         -83.02129
  153 Torsion                  8     6    10     9          -0.00000
  154 Torsion                  8     7     3     9           0.00000
  155 Torsion                  8     9     2    10         126.35953
  156 Torsion                  9     3     4    10          -0.00000
  157 Torsion                  9     8     6    10           0.00000


            XYZ format geometry
            -------------------
    10
 geometry
 Au                    0.00000000     0.06036585     0.00000000
 Li                    0.00000000    -1.58963415    -0.00000000
 Xx                   17.30716879    -7.01168030     0.00000000
 Xx                    2.68324680   -15.11579547    10.97561948
 Xx                   -0.43083952     2.53153130    19.85674127
 Xx                  -13.71403838     7.31642158     5.69123906
 Xx                   14.19308247    10.63564647     8.88112179
 Xx                    0.90988360    15.42053676    -5.28438042
 Xx                    4.02396992    -2.22679001   -14.16550221
 Xx                  -10.59995207   -10.33090519    -3.18988273

 ==============================================================================
                                internuclear distances
 ------------------------------------------------------------------------------
       center one      |      center two      | atomic units |  angstroms
 ------------------------------------------------------------------------------
    2 Li               |   1 Au               |     3.11805  |     1.65000
 ------------------------------------------------------------------------------
                         number of included internuclear distances:          1
 ==============================================================================




 **** WARNING Zero Coefficient **** on atom "              Au"
 angular momentum value: 0  standard basis set name: "lanl2dz ecp"
 input line that generated warning:
  1199:       0.2826000              0.0000000              1.3064399
  
                      Basis "ao basis" -> "" (cartesian)
                      -----
  Au (Gold)
  ---------
            Exponent  Coefficients 
       -------------- ---------------------------------------------------------
  1 S  2.80900000E+00 -1.202156
  1 S  1.59500000E+00  1.674158
  1 S  5.32700000E-01  0.352659

  2 S  2.80900000E+00  1.160848
  2 S  1.59500000E+00 -1.864285
  2 S  5.32700000E-01 -1.035623
  2 S  2.82600000E-01  1.306440

  3 S  5.98000000E-02  1.000000

  4 P  3.68400000E+00 -0.280268
  4 P  1.66600000E+00  0.781840
  4 P  5.98900000E-01  0.480478

  5 P  6.83800000E-01 -0.095208
  5 P  9.77000000E-02  1.029915

  6 P  2.79000000E-02  1.000000

  7 D  1.28700000E+00  0.584427
  7 D  4.33500000E-01  0.529816

  8 D  1.39600000E-01  1.000000

  Li (Lithium)
  ------------
            Exponent  Coefficients 
       -------------- ---------------------------------------------------------
  1 S  1.61195750E+01  0.154329
  1 S  2.93620070E+00  0.535328
  1 S  7.94650500E-01  0.444635

  2 S  6.36289700E-01 -0.099967
  2 S  1.47860100E-01  0.399513
  2 S  4.80887000E-02  0.700115

  3 P  6.36289700E-01  0.155916
  3 P  1.47860100E-01  0.607684
  3 P  4.80887000E-02  0.391957



 Summary of "ao basis" -> "" (cartesian)
 ------------------------------------------------------------------------------
       Tag                 Description            Shells   Functions and Types
 ---------------- ------------------------------  ------  ---------------------
 Au                       lanl2dz ecp                8       24   3s3p2d
 Li                          sto-3g                  3        5   2s1p


                 ECP       "ecp basis" -> "" (cartesian)
                -----
  Au (Gold) Replaces    60 electrons
  ----------------------------------
          R-exponent    Exponent     Coefficients 
         ------------ ---------------------------------------------------------
  1 U L      1.00      622.628796     -60.000000
  1 U L      2.00      136.284361    -555.529231
  1 U L      2.00       33.154978    -168.001979
  1 U L      2.00        9.989490     -63.039988
  1 U L      2.00        3.048131      -4.251668

  2 U-s      0.00      194.737430       3.000000
  2 U-s      1.00      351.532745      38.602088
  2 U-s      2.00      122.327040     864.837073
  2 U-s      2.00       32.091462     374.993552
  2 U-s      2.00        5.245181     289.791010
  2 U-s      2.00        4.491622    -152.453277

  3 U-p      0.00      420.615880       2.000000
  3 U-p      1.00      109.441782      73.888563
  3 U-p      2.00       34.171428     326.672987
  3 U-p      2.00        5.987975     126.581459

  4 U-d      0.00      219.266616       3.000000
  4 U-d      1.00      122.729779      55.679315
  4 U-d      2.00       63.106337     449.198734
  4 U-d      2.00       18.368452     215.026909
  4 U-d      2.00        4.497284      64.084100

  5 U-f      0.00      108.550604       4.000000
  5 U-f      1.00       56.479553      51.806534
  5 U-f      2.00       29.206916     231.218311
  5 U-f      2.00        9.544054     119.004739
  5 U-f      2.00        2.896512      15.342419

                                 NWChem SCF Module
                                 -----------------


                                     Annealing



  ao basis        = "ao basis"
  functions       =    29
  atoms           =    10
  closed shells   =    11
  open shells     =     0
  charge          =   0.00
  wavefunction    = RHF 
  input vectors   = atomic
  output vectors  = ./anneal.movecs
  use symmetry    = F
  symmetry adapt  = F


 Summary of "ao basis" -> "ao basis" (cartesian)
 ------------------------------------------------------------------------------
       Tag                 Description            Shells   Functions and Types
 ---------------- ------------------------------  ------  ---------------------
 Au                       lanl2dz ecp                8       24   3s3p2d
 Li                          sto-3g                  3        5   2s1p



 Forming initial guess at       1.2s


      Superposition of Atomic Density Guess
      -------------------------------------

 Sum of atomic energies:        -165.93184453

      Non-variational initial energy
      ------------------------------

 Total energy =    -141.875628
 1-e energy   =    -281.676036
 2-e energy   =     121.519739
 HOMO         =      -0.395366
 LUMO         =      -0.012434


 Starting SCF solution at       1.2s



 ----------------------------------------------
         Quadratically convergent ROHF

 Convergence threshold     :          1.000E-04
 Maximum no. of iterations :           30
 Final Fock-matrix accuracy:          1.000E-07
 ----------------------------------------------


 #quartets = 2.211D+03 #integrals = 2.461D+04 #direct =  0.0% #cached =100.0%


 Integral file          = /home/scratch/nwchem/danian/anneal.aoints.0
 Record size in doubles =  65536        No. of integs per rec  =  43688
 Max. records in memory =      2        Max. records in file   = 199239
 No. of bits per label  =      8        No. of bits per value  =     64


File balance: exchanges=     0  moved=     0  time=   0.0


              iter       energy          gnorm     gmax       time
             ----- ------------------- --------- --------- --------
                 1     -141.7407706464  7.97D-01  2.71D-01      1.1
                 2     -141.7959019340  9.86D-02  3.03D-02      1.1
                 3     -141.7979668562  5.80D-03  2.14D-03      1.1
                 4     -141.7979725611  2.36D-05  9.06D-06      1.1


       Final RHF  results 
       ------------------ 

         Total SCF energy =   -141.797972561082
      One-electron energy =   -284.808372100683
      Two-electron energy =    124.729730937793
 Nuclear repulsion energy =     18.280668601808

        Time for solution =      0.9s


             Final eigenvalues
             -----------------

              1      
    1   -4.6921
    2   -2.7066
    3   -2.6724
    4   -2.6724
    5   -2.4430
    6   -0.4596
    7   -0.4518
    8   -0.4518
    9   -0.4284
   10   -0.4284
   11   -0.2680
   12    0.0300
   13    0.0453
   14    0.0453
   15    0.1245
   16    0.1900
   17    0.1900
   18    0.2319
   19    0.2862
   20    0.2862
   21    0.5345

                       ROHF Final Molecular Orbital Analysis
                       -------------------------------------

 Vector    2  Occ=2.000000D+00  E=-2.706563D+00
              MO Center=  1.9D-17, -9.2D-03,  9.8D-17, r^2= 4.7D-01
   Bfn.  Coefficient  Atom+Function         Bfn.  Coefficient  Atom+Function  
  ----- ------------  ---------------      ----- ------------  ---------------
     5      0.970421   1 Au py               25     -0.171501   2 Li s         

 Vector    3  Occ=2.000000D+00  E=-2.672397D+00
              MO Center= -1.1D-16,  5.5D-02,  1.8D-16, r^2= 3.8D-01
   Bfn.  Coefficient  Atom+Function         Bfn.  Coefficient  Atom+Function  
  ----- ------------  ---------------      ----- ------------  ---------------
     4      0.882089   1 Au px                6      0.462839   1 Au pz        

 Vector    4  Occ=2.000000D+00  E=-2.672397D+00
              MO Center= -2.3D-16,  5.5D-02,  2.5D-17, r^2= 3.8D-01
   Bfn.  Coefficient  Atom+Function         Bfn.  Coefficient  Atom+Function  
  ----- ------------  ---------------      ----- ------------  ---------------
     6      0.882089   1 Au pz                4     -0.462839   1 Au px        

 Vector    5  Occ=2.000000D+00  E=-2.442971D+00
              MO Center= -1.2D-17, -1.5D+00, -6.2D-17, r^2= 2.6D-01
   Bfn.  Coefficient  Atom+Function         Bfn.  Coefficient  Atom+Function  
  ----- ------------  ---------------      ----- ------------  ---------------
    25      0.961406   2 Li s                 5      0.211275   1 Au py        

 Vector    6  Occ=2.000000D+00  E=-4.596465D-01
              MO Center= -8.1D-18,  6.2D-02,  2.3D-16, r^2= 8.4D-01
   Bfn.  Coefficient  Atom+Function         Bfn.  Coefficient  Atom+Function  
  ----- ------------  ---------------      ----- ------------  ---------------
    16      0.941078   1 Au dyy              26      0.510031   2 Li s         
     3     -0.493076   1 Au s                13     -0.455460   1 Au dxx       
    18     -0.455460   1 Au dzz              28      0.287657   2 Li py        
     8      0.247976   1 Au py        

 Vector    7  Occ=2.000000D+00  E=-4.518088D-01
              MO Center= -1.2D-16, -1.5D-02,  2.7D-17, r^2= 9.8D-01
   Bfn.  Coefficient  Atom+Function         Bfn.  Coefficient  Atom+Function  
  ----- ------------  ---------------      ----- ------------  ---------------
    14      1.546290   1 Au dxy              20      0.281582   1 Au dxy       

 Vector    8  Occ=2.000000D+00  E=-4.518088D-01
              MO Center=  8.2D-16, -1.5D-02,  1.8D-16, r^2= 9.8D-01
   Bfn.  Coefficient  Atom+Function         Bfn.  Coefficient  Atom+Function  
  ----- ------------  ---------------      ----- ------------  ---------------
    17      1.546290   1 Au dyz              23      0.281582   1 Au dyz       

 Vector    9  Occ=2.000000D+00  E=-4.283724D-01
              MO Center=  2.4D-16,  6.0D-02, -4.2D-17, r^2= 8.6D-01
   Bfn.  Coefficient  Atom+Function         Bfn.  Coefficient  Atom+Function  
  ----- ------------  ---------------      ----- ------------  ---------------
    13      0.789865   1 Au dxx              18     -0.789865   1 Au dzz       
    19      0.153849   1 Au dxx              24     -0.153849   1 Au dzz       

 Vector   10  Occ=2.000000D+00  E=-4.283724D-01
              MO Center= -5.0D-16,  6.0D-02, -2.3D-16, r^2= 8.6D-01
   Bfn.  Coefficient  Atom+Function         Bfn.  Coefficient  Atom+Function  
  ----- ------------  ---------------      ----- ------------  ---------------
    15      1.579730   1 Au dxz              21      0.307699   1 Au dxz       

 Vector   11  Occ=2.000000D+00  E=-2.679942D-01
              MO Center= -1.4D-17, -1.8D-01, -9.7D-16, r^2= 3.0D+00
   Bfn.  Coefficient  Atom+Function         Bfn.  Coefficient  Atom+Function  
  ----- ------------  ---------------      ----- ------------  ---------------
    26      0.681554   2 Li s                 2      0.314589   1 Au s         
    28      0.285215   2 Li py                8      0.178194   1 Au py        
    25     -0.159978   2 Li s         

 Vector   12  Occ=0.000000D+00  E= 2.997344D-02
              MO Center= -1.7D-16, -1.1D+00, -2.4D-15, r^2= 1.0D+01
   Bfn.  Coefficient  Atom+Function         Bfn.  Coefficient  Atom+Function  
  ----- ------------  ---------------      ----- ------------  ---------------
    26      0.889186   2 Li s                11     -0.652940   1 Au py        
     3     -0.527611   1 Au s                 8      0.282096   1 Au py        

 Vector   13  Occ=0.000000D+00  E= 4.532953D-02
              MO Center=  3.3D-16, -2.1D-01, -2.1D-16, r^2= 1.1D+01
   Bfn.  Coefficient  Atom+Function         Bfn.  Coefficient  Atom+Function  
  ----- ------------  ---------------      ----- ------------  ---------------
    10      0.842817   1 Au px               27      0.214625   2 Li px        
    14      0.172226   1 Au dxy       

 Vector   14  Occ=0.000000D+00  E= 4.532953D-02
              MO Center= -3.2D-16, -2.1D-01,  7.5D-16, r^2= 1.1D+01
   Bfn.  Coefficient  Atom+Function         Bfn.  Coefficient  Atom+Function  
  ----- ------------  ---------------      ----- ------------  ---------------
    12      0.842817   1 Au pz               29      0.214625   2 Li pz        
    17      0.172226   1 Au dyz       

 Vector   15  Occ=0.000000D+00  E= 1.244680D-01
              MO Center= -6.5D-17,  4.2D-01,  3.1D-15, r^2= 1.2D+01
   Bfn.  Coefficient  Atom+Function         Bfn.  Coefficient  Atom+Function  
  ----- ------------  ---------------      ----- ------------  ---------------
    26      2.166140   2 Li s                11      1.242572   1 Au py        
     3     -0.908309   1 Au s                 8      0.481869   1 Au py        
    22     -0.366045   1 Au dyy              28     -0.323020   2 Li py        

 Vector   16  Occ=0.000000D+00  E= 1.899795D-01
              MO Center=  3.9D-17, -2.8D-01, -1.3D-16, r^2= 9.3D+00
   Bfn.  Coefficient  Atom+Function         Bfn.  Coefficient  Atom+Function  
  ----- ------------  ---------------      ----- ------------  ---------------
    10      1.055396   1 Au px               27     -0.781952   2 Li px        
     7     -0.738107   1 Au px               14     -0.355712   1 Au dxy       
     4      0.173073   1 Au px               20     -0.173745   1 Au dxy       

 Vector   17  Occ=0.000000D+00  E= 1.899795D-01
              MO Center= -4.5D-16, -2.8D-01, -6.5D-16, r^2= 9.3D+00
   Bfn.  Coefficient  Atom+Function         Bfn.  Coefficient  Atom+Function  
  ----- ------------  ---------------      ----- ------------  ---------------
    12      1.055396   1 Au pz               29     -0.781952   2 Li pz        
     9     -0.738107   1 Au pz               17     -0.355712   1 Au dyz       
     6      0.173073   1 Au pz               23     -0.173745   1 Au dyz       

 Vector   18  Occ=0.000000D+00  E= 2.319301D-01
              MO Center= -2.7D-17,  3.4D-01, -2.5D-16, r^2= 6.7D+00
   Bfn.  Coefficient  Atom+Function         Bfn.  Coefficient  Atom+Function  
  ----- ------------  ---------------      ----- ------------  ---------------
     3      1.368864   1 Au s                26     -1.182166   2 Li s         
    11     -0.909012   1 Au py                8      0.821482   1 Au py        
    28     -0.534042   2 Li py                5     -0.293087   1 Au py        
    25      0.175542   2 Li s                19     -0.165405   1 Au dxx       
    24     -0.165405   1 Au dzz       

 Vector   19  Occ=0.000000D+00  E= 2.861723D-01
              MO Center=  1.8D-16, -8.9D-01,  6.1D-16, r^2= 5.1D+00
   Bfn.  Coefficient  Atom+Function         Bfn.  Coefficient  Atom+Function  
  ----- ------------  ---------------      ----- ------------  ---------------
     7      1.272227   1 Au px               27     -1.178105   2 Li px        
    14     -0.349483   1 Au dxy              20     -0.259765   1 Au dxy       

 Vector   20  Occ=0.000000D+00  E= 2.861723D-01
              MO Center=  8.1D-17, -8.9D-01,  1.7D-15, r^2= 5.1D+00
   Bfn.  Coefficient  Atom+Function         Bfn.  Coefficient  Atom+Function  
  ----- ------------  ---------------      ----- ------------  ---------------
     9      1.272227   1 Au pz               29     -1.178105   2 Li pz        
    17     -0.349483   1 Au dyz              23     -0.259765   1 Au dyz       

 Vector   21  Occ=0.000000D+00  E= 5.345059D-01
              MO Center=  7.7D-16,  6.0D-02,  4.1D-16, r^2= 3.6D+00
   Bfn.  Coefficient  Atom+Function         Bfn.  Coefficient  Atom+Function  
  ----- ------------  ---------------      ----- ------------  ---------------
    21      1.789589   1 Au dxz              15     -0.995079   1 Au dxz       
    19      0.269854   1 Au dxx              24     -0.269854   1 Au dzz       
    13     -0.150049   1 Au dxx              18      0.150049   1 Au dzz       


 center of mass
 --------------
 x =   0.00000000 y =   0.00682938 z =   0.00000000

 moments of inertia (a.u.)
 ------------------
          65.864986253209           0.000000000000           0.000000000000
           0.000000000000           0.000000000000          -0.000000000000
           0.000000000000          -0.000000000000          65.864986253209

  Mulliken analysis of the total density
  --------------------------------------

    Atom       Charge   Shell Charges
 -----------   ------   -------------------------------------------------------
    1 Au  19    18.63   2.05  0.31  0.03  5.97  0.06 -0.01  8.98  1.24
    2 Li   3     3.37   1.96  0.96  0.45

       Multipole analysis of the density wrt the origin
       ------------------------------------------------

     L   x y z        total         open         nuclear
     -   - - -        -----         ----         -------
     0   0 0 0     -0.000000      0.000000     22.000000

     1   1 0 0     -0.000000      0.000000      0.000000
     1   0 1 0     -1.563408      0.000000     -6.844495
     1   0 0 1      0.000000      0.000000     -0.000000

     2   2 0 0    -21.589905      0.000000      0.000000
     2   1 1 0      0.000000      0.000000      0.000000
     2   1 0 1     -0.000000      0.000000      0.000000
     2   0 2 0    -13.014633      0.000000     27.318809
     2   0 1 1      0.000000      0.000000      0.000000
     2   0 0 2    -21.589905      0.000000      0.000000


 Parallel integral file used       8 records with       0 large values


 Task  times  cpu:        0.9s     wall:        1.0s


                                NWChem Input Module
                                -------------------


 Summary of allocated global arrays
-----------------------------------
  No active global arrays



                         GA Statistics for process    0
                         ------------------------------

       create   destroy   get      put      acc     scatter   gather  read&inc
calls:  221      221     1289      729     1257        0        0       17     
number of processes/call 1.36e+00 1.29e+00 1.14e+00 0.00e+00 0.00e+00
bytes total:             1.74e+06 1.02e+06 2.85e+05 0.00e+00 0.00e+00 1.36e+02
bytes remote:            1.64e+05 7.47e+04 6.92e+04 0.00e+00 0.00e+00 0.00e+00
Max memory consumed for GA by this process: 61520 bytes

MA_summarize_allocated_blocks: starting scan ...
MA_summarize_allocated_blocks: scan completed: 0 heap blocks, 0 stack blocks
MA usage statistics:

	allocation statistics:
					      heap	     stack
					      ----	     -----
	current number of blocks	         0	         0
	maximum number of blocks	        39	        14
	current total bytes		         0	         0
	maximum total bytes		   1128400	  22509744
	maximum total K-bytes		      1129	     22510
	maximum total M-bytes		         2	        23


                                     CITATION
                                     --------
                Please cite the following reference when publishing
                           results obtained with NWChem:

                 M. Valiev, E.J. Bylaska, N. Govind, K. Kowalski,
              T.P. Straatsma, H.J.J. van Dam, D. Wang, J. Nieplocha,
                        E. Apra, T.L. Windus, W.A. de Jong
                 "NWChem: a comprehensive and scalable open-source
                  solution for large scale molecular simulations"
                      Comput. Phys. Commun. 181, 1477 (2010)
                           doi:10.1016/j.cpc.2010.04.018

                              AUTHORS & CONTRIBUTORS
                              ----------------------
          E. Apra, E. J. Bylaska, W. A. de Jong, N. Govind, K. Kowalski,
       T. P. Straatsma, M. Valiev, H. J. J. van Dam, D. Wang, T. L. Windus,
        J. Hammond, J. Autschbach, K. Bhaskaran-Nair, J. Brabec, K. Lopata,
     F. Aquino, S. Hirata, M. T. Hackler, J. Mullin, P. Nichols, R. Peverati,
    J. Pittner, Y. Zhao, P.-D. Fan, R. J. Harrison, M. Dupuis, D. Silverstein,
    D. M. A. Smith, J. Nieplocha, V. Tipparaju, M. Krishnan, B. E. Van Kuiken,
        A. Vazquez-Mayagoitia, L. Jensen, M. Swart, Q. Wu, T. Van Voorhis,
     A. A. Auer, M. Nooijen, L. D. Crosby, E. Brown, G. Cisneros, G. I. Fann,
     H. Fruchtl, J. Garza, K. Hirao, R. Kendall, J. A. Nichols, K. Tsemekhman,
      K. Wolinski, J. Anchell, D. Bernholdt, P. Borowski, T. Clark, D. Clerc,
      H. Dachsel, M. Deegan, K. Dyall, D. Elwood, E. Glendening, M. Gutowski,
      A. Hess, J. Jaffe, B. Johnson, J. Ju, R. Kobayashi, R. Kutteh, Z. Lin,
   R. Littlefield, X. Long, B. Meng, T. Nakajima, S. Niu, L. Pollack, M. Rosing,
   K. Glaesemann, G. Sandrone, M. Stave, H. Taylor, G. Thomas, J. H. van Lenthe,
                                A. Wong, Z. Zhang.

 Total times  cpu:        1.0s     wall:        2.2s
