           2
 Configuration:    1  Energy(u.a.)=   -141.79797256
  Au     0.000000    0.000000    0.000000
  Li     0.000000    0.000000    1.650000
           2
 Configuration:    2  Energy(u.a.)=   -141.79797256
  Au    -0.244184    0.456843   -0.936391
  Li    -0.195351   -0.894069    0.009734
           2
 Configuration:    3  Energy(u.a.)=   -141.79797256
  Au     0.564372   -0.089105   -1.454285
  Li    -0.318055    0.631297   -0.260617
           2
 Configuration:    4  Energy(u.a.)=   -141.79797256
  Au     0.435923    0.141521   -0.711398
  Li     0.300618    1.726762   -1.148667
           2
 Configuration:    5  Energy(u.a.)=   -141.79797256
  Au     0.005367   -0.242626   -0.154665
  Li     0.246245    1.253312   -0.807849
           2
 Configuration:    7  Energy(u.a.)=   -141.79797256
  Au     0.183412   -0.418647   -0.552417
  Li     0.896782    0.395191    0.693084
           2
 Configuration:    8  Energy(u.a.)=   -141.79797256
  Au     0.576511   -1.077437   -0.204575
  Li     0.324928   -1.667000    1.315827
           2
 Configuration:    9  Energy(u.a.)=   -141.79797256
  Au     1.479027   -0.078523    0.602819
  Li     1.593348   -1.273653    1.734674
           2
 Configuration:   10  Energy(u.a.)=   -141.79797256
  Au     1.339134   -0.289143    0.955601
  Li     2.347904   -0.683041    2.200482
           2
 Configuration:   11  Energy(u.a.)=   -141.79797256
  Au     0.435070    0.070876    0.233943
  Li     0.689379   -0.277476    1.826576
           2
 Configuration:   12  Energy(u.a.)=   -141.79797256
  Au     1.023363   -0.331328    0.051799
  Li     1.424322    0.738166    1.242562
           2
 Configuration:   13  Energy(u.a.)=   -141.79797256
  Au     0.967402   -0.824417   -0.033513
  Li     1.774497    0.160118    1.016148
           2
 Configuration:   14  Energy(u.a.)=   -141.79797256
  Au     0.243551   -1.397752    0.133859
  Li     0.812437   -0.413081    1.329388
           2
 Configuration:   15  Energy(u.a.)=   -141.79797256
  Au    -0.108817   -2.311626    0.268716
  Li     0.028064   -2.248293    1.911808
           2
 Configuration:   16  Energy(u.a.)=   -141.79797256
  Au    -0.099309   -1.672995    0.504556
  Li     0.617022   -1.982265    1.958420
           2
 Configuration:   18  Energy(u.a.)=   -141.79797256
  Au     0.256008   -0.224767    1.492252
  Li     0.447594   -0.979153    2.947139
           2
 Configuration:   19  Energy(u.a.)=   -141.79797256
  Au     0.228758   -0.300010    2.273542
  Li    -0.094957   -1.864668    2.685308
           2
 Configuration:   20  Energy(u.a.)=   -141.79797256
  Au    -0.177561    0.130129    3.013697
  Li    -0.653832   -1.421746    3.309251
           2
 Configuration:   21  Energy(u.a.)=   -141.79797256
  Au     0.566815    0.980172    2.960675
  Li    -0.790210    0.180436    2.469346
           2
 Configuration:   22  Energy(u.a.)=   -141.79797256
  Au     0.788240    1.531673    3.708398
  Li     0.043367    0.936317    2.361841
           2
 Configuration:   23  Energy(u.a.)=   -141.79797256
  Au     1.727173    1.053534    3.260726
  Li     0.499887    0.996825    2.159339
           2
 Configuration:   24  Energy(u.a.)=   -141.79797256
  Au     1.984326    0.248032    3.308128
  Li     1.090437    1.052271    2.178234
           2
 Configuration:   25  Energy(u.a.)=   -141.79797256
  Au     1.590183   -0.322834    2.434171
  Li     1.525021    0.227330    0.879960
           2
 Configuration:   26  Energy(u.a.)=   -141.79797256
  Au     2.528346    0.498840    2.059216
  Li     2.283340    0.107781    0.475061
           2
 Configuration:   28  Energy(u.a.)=   -141.79797256
  Au     1.704878    0.752598    3.563311
  Li     3.106856    0.026733    3.083647
           2
 Configuration:   29  Energy(u.a.)=   -141.79797256
  Au     1.493200    0.039832    3.288823
  Li     1.981804   -1.259658    4.180502
           2
 Configuration:   30  Energy(u.a.)=   -141.79797256
  Au     1.099907    0.352070    2.634822
  Li     1.692770   -0.359180    4.000522
           2
 Configuration:   31  Energy(u.a.)=   -141.79797256
  Au     0.241161   -0.216582    1.874429
  Li    -0.258725   -1.787457    1.944898
           2
 Configuration:   32  Energy(u.a.)=   -141.79797256
  Au    -0.292613    0.659002    1.128720
  Li     0.089126   -0.325000    2.396993
           2
 Configuration:   33  Energy(u.a.)=   -141.79797256
  Au     0.283190   -0.322318    1.859205
  Li     0.711141   -1.543086    2.883452
           2
 Configuration:   34  Energy(u.a.)=   -141.79797256
  Au    -0.534166    0.225402    1.578516
  Li    -0.405288   -1.412089    1.735078
           2
 Configuration:   35  Energy(u.a.)=   -141.79797256
  Au    -1.527434    0.352262    2.492968
  Li    -1.545705   -1.277481    2.750070
           2
 Configuration:   36  Energy(u.a.)=   -141.79797256
  Au    -0.918350   -0.575234    2.195597
  Li    -1.106219   -2.077918    2.850690
