
 *******************************************************************************
 *                                                                             *
 *  -------------------------------------                                      *
 *   Amsterdam Density Functional  (ADF)         2013.01   April 2, 2013       *
 *  -------------------------------------                                      *
 *                                               Build 201304112106            *
 *                                                                             *
 *                                                                             *
 *                            =====================                            *
 *                            |                   |                            *
 *                            |     D I R A C     |                            *
 *                            |                   |                            *
 *                            =====================                            *
 *                                                                             *
 *                                                                             *
 *   Online information and documentation:  http://www.scm.com                 *
 *   E-mail:  support@scm.com   info@scm.com                                   *
 *                                                                             *
 *   Scientific publications using ADF results must be properly referenced     *
 *   See the User Manuals (or the web site) for recommended citations          *
 *   The terms and conditions of the End User License Agreement apply to       *
 *   the use of ADF, http://www.scm.com/Sales/LicAgreement.html                *
 *                                                                             *
 ****************************  x86_64_linux_intel  *****************************
 
 Licensed to: Prof. Cacier Hadad / University of Antioquia / Medellin / COLOMBIA
 SCM User ID: u15319
  
 DIRAC 2013.01  RunTime: Jan01-2013 00:00:00  Nodes: 1  Procs: 1

 Temporary files are created in /tmp/kid_0.ZqDq90

1
 HYDROGEN ATOM RELATIVISTIC, Point Nuc, A and c from libtc   
 N J RN H ZN XION ANUC CLIGHT
 5000    1100.00000000197.36710137  1.00000000  0.00000000    1.007825  0.1370360E+03
  PH   PHI     EPS        DEL        DELRVR
  0.30  0.30     2500.00  0.00001000  0.00001000
 IDIRC  NC1  NDEBU NPRIN  IPUN IRCOR IWCOR
   1   300     0     0     0     0     0
   XALPHA      XLATTER      RNUC
  0.70000000  0.00000000  0.00000000 Point Charge
   XN   XL   XJ      XE          XZ      XDELL
  1.0  0.0  0.5      -1.000       1.000     0.00000
 ICORP=  0  NPCL=  0  DEMP=0.00  PEPS=0.000000
 R(1)=  0.1000000E-08 D=  0.1005080E+01 RNUC=  0.0000000E+00
 converged at cycle   32  DENSITY AVERAGING    0.2400
  MAXIMUM ERROR IN R.V(R) IS   0.79874357E-05
 Q,EY,EV,EZ,ESUM,ETOT,RHO  0.100000E+01 -0.266614E+00 -0.619969E+00 -0.910779E+00 -0.203940E+00 -0.415998E+00  0.337036E-17


 DIRAC CALCULATION
1                    HYDROGEN ATOM RELATIVISTIC, Point Nuc, A and c from libtc


 EXCHANGE COEFFICIENT=  0.7000000           TAIL CORRECTION=  0.           NUCLEAR RADIUS=  0.000E+00
0                       ORBITAL    N    L    J     ELECTRONS     EIGENVALUE                DELTA OF EIGENV.

                          1S1/2  1.0  0.0  0.5     1.000       -0.2039397E+00                 0.2720093E-06


                                        NUCLEAR CHARGE=    1.000000
                            INTEGRAL OF CHARGE DENSITY=    1.000000
                           SUM OF THE ORBITAL ENERGIES=     -0.2039
                                          TOTAL ENERGY=     -0.4160
                                        KINETIC ENERGY=      0.4160
                             NUCLEAR ATTRACTION ENERGY=     -0.9108
                             ELECTRON REPULSION ENERGY=      0.2787
                                       EXCHANGE ENERGY=     -0.2000

 *******************************************************************************

                             D I R A C   E X I T
 NORMAL TERMINATION



 =================
 Timing Statistics
 =================
  
 Total Used :                     CPU=        0.07      System=        0.02     Elapsed=        0.09

 Calls  Section                     ( Mean, Percentage )
 ---------------------------------------------------------------------------------------------------
     2  ><      ................      0.00    0.00             0.00    0.05             0.00    0.01
     1  EXIT PROCEDURE .........      0.07  100.00             0.02   99.95             0.09   99.99


 Currently Open Files (EXIT00)
 ====================

 Unit    Access Format  Status   Type       Ident (file)
 -------------------------------------------------------
   3      SEQ    FORM   TRANSP  NORMAL      LOGFILE
                                          ( logfile )


 Buffered I/O statistics
 =======================
 Memory available:                     67108864
 Number of records fitting in memory:     16131
 Input : 100.0% of                            0  *4k bytes
 Output: 100.0% of                            0  *4k bytes
 Records from serial files evicted:           0
                    others evicted:           0
 Hash table lookups:          0 with          0 conflicts (100.00%)
(INPUT FILE)
Create H   file=/home/danian/Documents/programas/adf2013.01/atomicdata/ZORA/TZP/H
 XC
 GGA PBE
End
relativistic ZORA
Corepotentials t12.rel
End Input

 *******************************************************************************
 *                                                                             *
 *  -------------------------------------                                      *
 *   Amsterdam Density Functional  (ADF)         2013.01   April 2, 2013       *
 *  -------------------------------------                                      *
 *                                               Build 201304112215            *
 *                                                                             *
 *                                                                             *
 *                              =================                              *
 *                              |               |                              *
 *                              |     A D F     |                              *
 *                              |               |                              *
 *                              =================                              *
 *                                                                             *
 *                                                                             *
 *   Online information and documentation:  http://www.scm.com                 *
 *   E-mail:  support@scm.com   info@scm.com                                   *
 *                                                                             *
 *   Scientific publications using ADF results must be properly referenced     *
 *   See the User Manuals (or the web site) for recommended citations          *
 *   The terms and conditions of the End User License Agreement apply to       *
 *   the use of ADF, http://www.scm.com/Sales/LicAgreement.html                *
 *                                                                             *
 ********************  x86_64_linux_intel / platform_mpi  **********************
 
 Licensed to: Prof. Cacier Hadad / University of Antioquia / Medellin / COLOMBIA
 SCM User ID: u15319
  
 ADF 2013.01  RunTime: Jan01-2013 00:00:00  Nodes: 1  Procs: 1

 Temporary files are created in /tmp/kid_0.u5mayc

 Hydrogen (TZP)



 ===========================
 A T T A C H E D   F I L E S
 ===========================
  
 CREATE - Data File:    /home/danian/Documents/programas/adf2013.01/atomicdata/ZORA/TZP/H
                        Hydrogen (TZP)
 Core Potentials:
         file : t12.rel



 ===============================
 M O D E L   P A R A M E T E R S
 ===============================
  
 DENSITY FUNCTIONAL POTENTIAL (scf)
    LDA:                               PW92                                    == Not Default ==
    Gradient Corrections:              PBEc PBEx                               == Not Default ==

 SPIN  (restricted / unrestr.)
    Molecule:                          Restricted                               

 OTHER ASPECTS
    Relativistic Corrections:          scalar (ZORA,SAPA)                      == Not Default ==

    Nuclear Charge Density Model:      Point Charge Nuclei                                                                                                                                                                                     
    Core Treatment:                    Frozen Orbital(s)                        

    Hyperfine or Zeeman Interaction:   ---                                      



 =====================================
 S Y M M E T R Y ,   E L E C T R O N S
 =====================================
  
 Symmetry: ATOM

 Irreducible Representations, including subspecies
 -------------------------------------------------
 S
 P:x  P:y  P:z
 D:z2  D:x2-y2  D:xy  D:xz  D:yz
 F:z3  F:z  F:xyz  F:z2x  F:z2y  F:x  F:y


 Configuration of Valence Electrons
 ==================================

          Occupation Numbers
          -------------------------------------------------
 S        1
 P        0
 D        0
 F        0
          -------------------------------------------------

 Total:   1

 Net Charge: 0 (Nuclei minus Electrons)

 Preset values for MO occupations will be applied through SCF cycle no. 1000000
 Thereafter, the program will assign electrons to MOs that are spatially
 similar to the occupied MOs in a "reference" cycle ("KeepOrbitals").
 The reference cycle is always the PREVIOUS cycle: it will evolve with
 the SCF procedure.



 ================================
 (Slater-type)  F U N C T I O N S  ***  (Basis and Fit)  ***
 ================================
  

 Atom Type    1  (H)
 ==============

 Valence Basis Sets:   4
 -----------------------
   1 S    0.690000
   1 S    0.920000
   1 S    1.580000
   2 P    1.250000

 Charge Fitting Sets (for the computation of the Coulomb Potential):  11
 -----------------------------------------------------------------------
   1 S    3.160000
   1 S    2.090000
   1 S    1.380000
   2 S    1.500000
   2 P    4.000000
   2 P    2.650000
   2 P    1.750000
   3 D    4.000000
   3 D    2.500000
   4 F    3.000000
   5 G    4.000000


 BAS: List of all Elementary Cartesian Basis Functions
 =====================================================

 The numbering in the list below (to the right of the function characteristics) is referred
 to in print-outs of MO eigenvectors and Mulliken populations in the BAS representation
 (as contrasted to the SFO representation).

 Notes:
 1. The functions are characterized by a polynomial prefactor (powers of x,y,z and r) and
    an exponential decay factor alpha.
 2. Since the basis sets are specific for an atom TYPE, the individual functions occur on
    all atoms of that type.
 3. The word 'Core' in the left margin signals that it is a Core Function (CF) : not a
    degree of freedom in the valence set, but only used to ensure orthogonalization of
    the other valence basis functions on the frozen Core Orbitals.


 (power of) X  Y  Z  R     Alpha  on Atom
            ==========     =====     ==========

 H                                    1
                                  ---------------------------------------------------------------------------
            0  0  0  0     0.690      1
            0  0  0  0     0.920      2
            0  0  0  0     1.580      3
            1  0  0  0     1.250      4
            0  1  0  0     1.250      5
            0  0  1  0     1.250      6

 Total number of charge fitting functions (nprimf)        50
 Total number of Cartesian basis functions (naos)          6
 Total number of Cartesian core functions  (ncos)          0



 BAS: List of all Elementary Cartesian Basis Functions
 =====================================================

 The numbering in the list below (to the right of the function characteristics) is referred
 to in print-outs of MO eigenvectors and Mulliken populations in the BAS representation
 (as contrasted to the SFO representation).

 Notes:
 1. The functions are characterized by a polynomial prefactor (powers of x,y,z and r) and
    an exponential decay factor alpha.
 2. Since the basis sets are specific for an atom TYPE, the individual functions occur on
    all atoms of that type.
 3. The word 'Core' in the left margin signals that it is a Core Function (CF) : not a
    degree of freedom in the valence set, but only used to ensure orthogonalization of
    the other valence basis functions on the frozen Core Orbitals.


 (power of) X  Y  Z  R     Alpha  on Atom
            ==========     =====     ==========

 H                                    1
                                  ---------------------------------------------------------------------------
            0  0  0  0     0.690      1
            0  0  0  0     0.920      2
            0  0  0  0     1.580      3
            1  0  0  0     1.250      4
            0  1  0  0     1.250      5
            0  0  1  0     1.250      6
1
 ***************************************************************************************************



                                              ***********************
                                              *  T E C H N I C A L  *
                                              ***********************
  



 =============================================================
 P A R A L L E L I Z A T I O N  and  V E C T O R I Z A T I O N
 =============================================================
  
 Nr of parallel processes:                                1
 Maximum vector length in NumInt loops:                 128



 ===============
 I O  vs.  C P U  ***  (store numerical data on disk or recalculate)  ***
 ===============
  
 Basis functions:   recalculate when needed
 Fit functions:     recalculate when needed

 IO buffersize (Mb):                                     64.000000



 =====================
 S C F   U P D A T E S
 =====================
  
 Max. nr. of cycles:                               100
 Convergence criterion:                              0.0000000100
   secondary criterion:                              0.0000000100

 Mix parameter (when DIIS does not apply):           0.2000000000
 Special mix parameter for the first cycle:          1.0000000000


 DIIS (Direct Inversion in Iteration Space)
    Replace damping when SCF Error is below:         0.5000000000
    Apply anyway after SCF cycle:
                                                     5
    (Max.) nr. of expansion vectors:                10

    Upperbound on expansion coefficients:            5.0000000000
    (when exceeded, IterationSpace is re-built)
    2nd Upperbound on coefficients:                 25.0000000000
    (when exceeded, simple damping will be used)
 Automatic ElectronSmearing (in case of problematic SCF convergence) disabled



 =================
 P R E C I S I O N  ***  (General: NumInt, NeglectFunctionTails, ...)  ***
 =================
  

 NumInt:           Target precision:                10.0000000000
 -------           Initial precision:               10.0000000000
                   Min. precision (optimization):   10.0000000000

 Neglect Functions:          Basis functions:        0.1000000000E-11
 ------------------          Fit functions:          0.1000000000E-11



 ===========================
 L I N E A R   S C A L I N G
 ===========================
  

 Cut-off radii density fit:                        0.1000000000E-13
 Overlap cut-off criterion AO matrix elements:     0.1000000000E-11
 Cut-offs for Coulomb potential and fitted density:0.1000000000E-13
 Cut-off criterion for Coulomb multipole terms:    0.1000000000E-13
 Progressive Convergence parameter:                 0.000000000    
1
 ***************************************************************************************************



                                            ***************************
                                            *  C O M P U T A T I O N  *
                                            ***************************
  

 Number of elements of the density matrix on this node (used, total):        21        21



 ====================================================
 Numerical Integration : Voronoi Polyhedra (Te Velde)
 ====================================================
  
 General Accuracy Parameter :                         10.00

 Symmetry used in the points section:  ATOM  


 Summary of the Symmetry Unique Points:
 --------------------------------------
    Nr. of used Symmetry Operators                     1

    Points in the Atomic Spheres                      35
    Points in the Atomic Polyhedra                     0
    Points in the Outer Region                         0
    ----------------------------------------------------
    Total                                             35

    Sum of Weights                                 33854.777883

 Total nr. of points:         35
 Nr. of blocks:                1
 Block length:                35
 Nr. of dummy points:          0


 Test of Precision of the Numerical Integration Grid
 ===================================================

 Integral of the Total Core Density:                   0.00000000000000



 =====
 S C F
 =====
  

 CYCLE    1
 orbitals (Q,E):
 ---------------
 S :1...3            ( 1.00    -0.2442)  ( 0.00     0.0880)  ( 0.00     1.5160)
 P :1...1            ( 0.00     0.4007)

 CYCLE    2
 d-Pmat  mean:  0.91E-02
 imax=      2: -0.42E-01
 orbitals (Q,E):
 ---------------
 S :1...2            ( 1.00    -0.2375)  ( 0.00     0.0911)
 P :1...1            ( 0.00     0.4063)

 CYCLE    3
 d-Pmat  mean:  0.14E-02
 imax=      2:  0.62E-02
 orbitals (Q,E):
 ---------------
 S :1...2            ( 1.00    -0.2387)  ( 0.00     0.0905)
 P :1...1            ( 0.00     0.4053)

 CYCLE    4
 d-Pmat  mean:  0.13E-04
 imax=      2:  0.49E-04
 orbitals (Q,E):
 ---------------
 S :1...2            ( 1.00    -0.2388)  ( 0.00     0.0904)
 P :1...1            ( 0.00     0.4053)

 CYCLE    5
 d-Pmat  mean:  0.73E-07
 imax=      2:  0.34E-06
 orbitals (Q,E):
 ---------------
 S :1...2            ( 1.00    -0.2388)  ( 0.00     0.0904)
 P :1...1            ( 0.00     0.4053)

 CYCLE    6
 d-Pmat  mean:  0.14E-10
 imax=      2:  0.67E-10
 orbitals (Q,E):
 ---------------
 S :1...2            ( 1.00    -0.2388)  ( 0.00     0.0904)
 P :1...1            ( 0.00     0.4053)

 SCF CONVERGED

 CYCLE    7
1
 ***************************************************************************************************



                                                *******************
                                                *  R E S U L T S  *
                                                *******************
  
 *** Setting up for NEW gradients in focky
 *** Using FIT density in focky

 Scaled ZORA Orbital Energies, per Irrep and Spin:
 =================================================
                        Occup              E (au)              E (eV)       Diff (eV) with prev. cycle
                        -----      --------------------        ------       --------------------------
 S
               1        1.000     -0.23877285297019E+00        -6.497              -3.76E-11
               2        0.000      0.90435302621336E-01         2.461
               3        0.000      0.15214594303926E+01        41.401
 P
               1        0.000      0.40525201574372E+00        11.027


 Partially Occupied:
               1 S                -0.23877285297019E+00
  
 LUMO :        2 S                 0.90435302621336E-01
  


 Orbital Energies, all Irreps
 ========================================

 Irrep        no.  (spin)   Occup              E (au)                E (eV)
 ---------------------------------------------------------------------------
 S             1             1.00       -0.23877285297019E+00        -6.4973
 S             2             0.00        0.90435302621336E-01         2.4609
 P             1             0.00        0.40525201574372E+00        11.0275
 S             3             0.00        0.15214594303926E+01        41.4010


 All Electron Calculation, thus no Orbital Energies of the Core Orbitals are calculated



 =======================================
 M U L L I K E N   P O P U L A T I O N S
 =======================================
  
 The survey below gives for each atom:
 a) the total charge (Z minus electrons)
 b) the net spin polarization (nr of electrons spin-A minus spin-B)
 c) for each spin the atomic electron valence density (integrated) per L-value.

 Atom              Charge    Spin density          S         P         D         F
 ----              ------    ------------       ------    ------    ------    ------
 1 H               0.0000                       1.0000    0.0000    0.0000    0.0000

 Populations of individual BAS functions
 ----------------------------------------
 1 H            0.2105  0.6787  0.1108  0.0000  0.0000  0.0000

 Gross Charges per Atom (Z minus electrons)
 ==========================================
             0.0000
 Net Total:  0.00000000


 Atom-Atom Population Matrix (off-diagonal elements not doubled)
 ===============================================================

     1 :     1.0000



 =============
 Dipole Moment  ***  (Debye)  ***
 =============
  
 Vector   :         0.00000000      0.00000000      0.00000000
 Magnitude:         0.00000000

 This molecular dipole moment is calculated with analytic integration



 =========================================
 Quadrupole Moment (Buckingham convention)  ***  (a.u.)  ***
 =========================================
  
      quad-xx        quad-xy        quad-xz        quad-yy        quad-yz        quad-zz
      0.00000000     0.00000000     0.00000000     0.00000000     0.00000000     0.00000000

 This molecular quadrupole moment is calculated with analytic integration



 ===============================================================================
 Electrostatic potential at the Nuclei due to valence electrons and other nuclei
 ===============================================================================
  
         Atom                  Potential
         ----                  ---------
     1)   H                   0.94455221
 
 
 ========================
 No memory problems found
 ========================
 
 Maximum number of active allocate calls:         308
 
 *******************************************************************************

                             A D F   E X I T
 NORMAL TERMINATION



 =================
 Timing Statistics
 =================
  
 Total Used :                     CPU=        0.11      System=        0.03     Elapsed=        0.14

 Calls  Section                     ( Mean, Percentage )
 ---------------------------------------------------------------------------------------------------
     3  ><      ................      0.00    0.62             0.00    0.05             0.00    0.48
     1  INIT    ................      0.01    6.66             0.00    2.70             0.01    5.72
     1  GEOMET  ................      0.02   14.91             0.02   49.09             0.03   23.06
     1  INPUTA  ................      0.00    1.00             0.00    0.18             0.00    0.81
     1  MAINSY  ................      0.00    3.48             0.00    3.47             0.00    3.47
     1  SYMFIT  ................      0.00    0.00             0.00    1.12             0.00    0.26
     1  CORORT  ................      0.00    0.00             0.00    0.89             0.00    0.21
     1  SYMORB  ................      0.00    0.00             0.00    1.67             0.00    0.39
     1  FITINT  ................      0.00    0.92             0.00    5.20             0.00    1.93
     1  CLSMAT  ................      0.00    0.20             0.00    0.00             0.00    0.15
     1  ORTHON  ................      0.00    0.63             0.00    0.00             0.00    0.48
     1  GENPT   ................      0.00    3.59             0.00    0.00             0.00    2.74
     1  PTBAS   ................      0.00    1.35             0.00    0.00             0.00    1.03
     7  FOCKY   ................      0.01   41.91             0.00   23.13             0.01   37.44
     7  FOCKTR  ................      0.00    0.90             0.00    0.98             0.00    0.91
     7  FOCKNM  ................      0.00    0.12             0.00    0.13             0.00    0.12
     7  SDIIS   ................      0.00    1.32             0.00    2.51             0.00    1.60
     7  EMERGE  ................      0.00    5.19             0.00    8.07             0.00    5.86
     1  COREPS  ................      0.00    1.77             0.00    0.81             0.00    1.55
     1  POPAN   ................      0.00    1.24             0.00    0.00             0.00    0.95
     1  DEBYE   ................      0.00    0.27             0.00    0.00             0.00    0.21
     1  QMPOT   ................      0.00    1.59             0.00    0.00             0.00    1.21
     1  EXIT PROCEDURE .........      0.01   12.33             0.00    0.00             0.01    9.41


 Currently Open Files (EXIT00)
 ====================

 Unit    Access Format  Status   Type       Ident (file)
 -------------------------------------------------------
   3      SEQ    FORM   TRANSP  NORMAL      LOGFILE
                                          ( logfile )


 Buffered I/O statistics
 =======================
 Memory available:                     67108864
 Number of records fitting in memory:     16131
 Input :   2.1% of                         2184  *4k bytes
 Output:  12.3% of                         1420  *4k bytes
 Records from serial files evicted:           0
                    others evicted:           0
 Hash table lookups:       9718 with          0 conflicts (  0.00%)

 ***************************************************************************************************
 (LOGFILE)
 <Jan01-2013> <00:00:00>  DIRAC 2013.01  RunTime: Jan01-2013 00:00:00  Nodes: 1  Procs: 1
 <Jan01-2013> <00:00:00>  NORMAL TERMINATION
 <Jan01-2013> <00:00:00>  END
 <Jan01-2013> <00:00:00>  ADF 2013.01  RunTime: Jan01-2013 00:00:00  Nodes: 1  Procs: 1
 <Jan01-2013> <00:00:00>  Hydrogen (TZP)
 <Jan01-2013> <00:00:00>  RunType   : CREATE
 <Jan01-2013> <00:00:00>  Net Charge: 0 (Nuclei minus Electrons)
 <Jan01-2013> <00:00:00>  Symmetry  : ATOM
  Coordinates
    Atom         X           Y           Z   (Angstrom)
    1.H         0.000000    0.000000    0.000000
 <Jan01-2013> <00:00:00>  >>>> CORORT
 <Jan01-2013> <00:00:00>  >>>> FITINT
 <Jan01-2013> <00:00:00>  >>>> CLSMAT
 <Jan01-2013> <00:00:00>  >>>> ORTHON
 <Jan01-2013> <00:00:00>  >>>> GENPT
 <Jan01-2013> <00:00:00>  Acc.Num.Int.=  10.000
 <Jan01-2013> <00:00:00>  Block Length=  35
 <Jan01-2013> <00:00:00>  >>>> PTBAS
 <Jan01-2013> <00:00:00>  >>>> CYCLE
 <Jan01-2013> <00:00:00>    1
 <Jan01-2013> <00:00:00>    2  ErrMat   0.00249596  MaxEl -0.00249472
 <Jan01-2013> <00:00:00>    3  ErrMat   0.00062444  MaxEl  0.00061403
 <Jan01-2013> <00:00:00>    4  ErrMat   0.00001581  MaxEl  0.00001400
 <Jan01-2013> <00:00:00>    5  ErrMat   0.00000002  MaxEl -0.00000002
 <Jan01-2013> <00:00:00>    6  ErrMat   0.00000000  MaxEl  0.00000000
 <Jan01-2013> <00:00:00>  SCF converged
 <Jan01-2013> <00:00:00>    7  ErrMat   0.00000000  MaxEl  0.00000000
 <Jan01-2013> <00:00:00>   Solutions with partially occupied orbitals may not be
 <Jan01-2013> <00:00:00>   lowest in energy. You might consider lowering the
 <Jan01-2013> <00:00:00>   symmetry in the input and explicitly specifying integer
 <Jan01-2013> <00:00:00>   occupations. In that case always check that you obtain
 <Jan01-2013> <00:00:00>   an aufbau solution.
 <Jan01-2013> <00:00:00>  >>>> POPAN
 <Jan01-2013> <00:00:00>  >>>> DEBYE
 <Jan01-2013> <00:00:00>  NORMAL TERMINATION
 <Jan01-2013> <00:00:00>  END

 *******************************************************************************
 *                                                                             *
 *  -------------------------------------                                      *
 *   Amsterdam Density Functional  (ADF)         2013.01   April 2, 2013       *
 *  -------------------------------------                                      *
 *                                               Build 201304112106            *
 *                                                                             *
 *                                                                             *
 *                            =====================                            *
 *                            |                   |                            *
 *                            |     D I R A C     |                            *
 *                            |                   |                            *
 *                            =====================                            *
 *                                                                             *
 *                                                                             *
 *   Online information and documentation:  http://www.scm.com                 *
 *   E-mail:  support@scm.com   info@scm.com                                   *
 *                                                                             *
 *   Scientific publications using ADF results must be properly referenced     *
 *   See the User Manuals (or the web site) for recommended citations          *
 *   The terms and conditions of the End User License Agreement apply to       *
 *   the use of ADF, http://www.scm.com/Sales/LicAgreement.html                *
 *                                                                             *
 ****************************  x86_64_linux_intel  *****************************
 
 Licensed to: Prof. Cacier Hadad / University of Antioquia / Medellin / COLOMBIA
 SCM User ID: u15319
  
 DIRAC 2013.01  RunTime: Jan01-2013 00:00:00  Nodes: 1  Procs: 1

 Temporary files are created in /tmp/kid_0.3ipuBo

1
 OXYGEN ATOM all electron RELATIVISTIC, Point Nuc, A and c fr
 N J RN H ZN XION ANUC CLIGHT
 5000    4100.00000000197.36710137  8.00000000  0.00000000   15.994914  0.1370360E+03
  PH   PHI     EPS        DEL        DELRVR
  0.30  0.30     2500.00  0.00001000  0.00001000
 IDIRC  NC1  NDEBU NPRIN  IPUN IRCOR IWCOR
   1   300     0     0     0     0     0
   XALPHA      XLATTER      RNUC
  0.70000000  0.00000000  0.00000000 Point Charge
   XN   XL   XJ      XE          XZ      XDELL
  1.0  0.0  0.5      -5.000       2.000     0.00000
  2.0  0.0  0.5      -1.000       2.000     0.00000
  2.0  1.0  0.5      -1.000       2.000     0.00000
  2.0  1.0  1.5      -1.000       2.000     0.00000
 ICORP=  0  NPCL=  0  DEMP=0.00  PEPS=0.000000
 R(1)=  0.1000000E-08 D=  0.1005080E+01 RNUC=  0.0000000E+00
 converged at cycle   28  DENSITY AVERAGING    0.2400
  MAXIMUM ERROR IN R.V(R) IS   0.81125670E-05
 Q,EY,EV,EZ,ESUM,ETOT,RHO  0.800000E+01 -0.101247E+02 -0.114961E+03 -0.177573E+03 -0.405053E+02 -0.743427E+02  0.414766E-14


 DIRAC CALCULATION
1                    OXYGEN ATOM all electron RELATIVISTIC, Point Nuc, A and c from libtc


 EXCHANGE COEFFICIENT=  0.7000000           TAIL CORRECTION=  0.           NUCLEAR RADIUS=  0.000E+00
0                       ORBITAL    N    L    J     ELECTRONS     EIGENVALUE                DELTA OF EIGENV.

                          1S1/2  1.0  0.0  0.5     2.000       -0.1880014E+02                 0.7264359E-06
                          2S1/2  2.0  0.0  0.5     2.000       -0.8412236E+00                 0.5932752E-05
                          2P1/2  2.0  1.0  0.5     2.000       -0.3063203E+00                 0.5998471E-05
                          2P3/2  2.0  1.0  1.5     2.000       -0.3049609E+00                 0.5986971E-05


                                        NUCLEAR CHARGE=    8.000000
                            INTEGRAL OF CHARGE DENSITY=    8.000000
                           SUM OF THE ORBITAL ENERGIES=    -40.5053
                                          TOTAL ENERGY=    -74.3427
                                        KINETIC ENERGY=     74.4552
                             NUCLEAR ATTRACTION ENERGY=   -177.5730
                             ELECTRON REPULSION ENERGY=     36.3686
                                       EXCHANGE ENERGY=     -7.5935

 *******************************************************************************

                             D I R A C   E X I T
 NORMAL TERMINATION



 =================
 Timing Statistics
 =================
  
 Total Used :                     CPU=        0.11      System=        0.02     Elapsed=        0.13

 Calls  Section                     ( Mean, Percentage )
 ---------------------------------------------------------------------------------------------------
     2  ><      ................      0.00    0.00             0.00    0.03             0.00    0.01
     1  EXIT PROCEDURE .........      0.11  100.00             0.02   99.97             0.13   99.99


 Currently Open Files (EXIT00)
 ====================

 Unit    Access Format  Status   Type       Ident (file)
 -------------------------------------------------------
   3      SEQ    FORM   TRANSP  NORMAL      LOGFILE
                                          ( logfile )


 Buffered I/O statistics
 =======================
 Memory available:                     67108864
 Number of records fitting in memory:     16131
 Input : 100.0% of                            0  *4k bytes
 Output: 100.0% of                            0  *4k bytes
 Records from serial files evicted:           0
                    others evicted:           0
 Hash table lookups:          0 with          0 conflicts (100.00%)
(INPUT FILE)
Create O   file=/home/danian/Documents/programas/adf2013.01/atomicdata/ZORA/TZP/O
 XC
 GGA PBE
End
relativistic ZORA
Corepotentials t12.rel
End Input

 *******************************************************************************
 *                                                                             *
 *  -------------------------------------                                      *
 *   Amsterdam Density Functional  (ADF)         2013.01   April 2, 2013       *
 *  -------------------------------------                                      *
 *                                               Build 201304112215            *
 *                                                                             *
 *                                                                             *
 *                              =================                              *
 *                              |               |                              *
 *                              |     A D F     |                              *
 *                              |               |                              *
 *                              =================                              *
 *                                                                             *
 *                                                                             *
 *   Online information and documentation:  http://www.scm.com                 *
 *   E-mail:  support@scm.com   info@scm.com                                   *
 *                                                                             *
 *   Scientific publications using ADF results must be properly referenced     *
 *   See the User Manuals (or the web site) for recommended citations          *
 *   The terms and conditions of the End User License Agreement apply to       *
 *   the use of ADF, http://www.scm.com/Sales/LicAgreement.html                *
 *                                                                             *
 ********************  x86_64_linux_intel / platform_mpi  **********************
 
 Licensed to: Prof. Cacier Hadad / University of Antioquia / Medellin / COLOMBIA
 SCM User ID: u15319
  
 ADF 2013.01  RunTime: Jan01-2013 00:00:01  Nodes: 1  Procs: 1

 Temporary files are created in /tmp/kid_0.O7HGko

 Oxygen (TZP)



 ===========================
 A T T A C H E D   F I L E S
 ===========================
  
 CREATE - Data File:    /home/danian/Documents/programas/adf2013.01/atomicdata/ZORA/TZP/O
                        Oxygen (TZP)
 Core Potentials:
         file : t12.rel



 ===============================
 M O D E L   P A R A M E T E R S
 ===============================
  
 DENSITY FUNCTIONAL POTENTIAL (scf)
    LDA:                               PW92                                    == Not Default ==
    Gradient Corrections:              PBEc PBEx                               == Not Default ==

 SPIN  (restricted / unrestr.)
    Molecule:                          Restricted                               

 OTHER ASPECTS
    Relativistic Corrections:          scalar (ZORA,SAPA)                      == Not Default ==

    Nuclear Charge Density Model:      Point Charge Nuclei                                                                                                                                                                                     
    Core Treatment:                    Frozen Orbital(s)                        

    Hyperfine or Zeeman Interaction:   ---                                      



 =====================================
 S Y M M E T R Y ,   E L E C T R O N S
 =====================================
  
 Symmetry: ATOM

 Irreducible Representations, including subspecies
 -------------------------------------------------
 S
 P:x  P:y  P:z
 D:z2  D:x2-y2  D:xy  D:xz  D:yz
 F:z3  F:z  F:xyz  F:z2x  F:z2y  F:x  F:y


 Configuration of Valence Electrons
 ==================================

          Occupation Numbers
          -------------------------------------------------
 S        2*2
 P        4
 D        0
 F        0
          -------------------------------------------------

 Total:   8

 Net Charge: 0 (Nuclei minus Electrons)

 Preset values for MO occupations will be applied through SCF cycle no. 1000000
 Thereafter, the program will assign electrons to MOs that are spatially
 similar to the occupied MOs in a "reference" cycle ("KeepOrbitals").
 The reference cycle is always the PREVIOUS cycle: it will evolve with
 the SCF procedure.



 ================================
 (Slater-type)  F U N C T I O N S  ***  (Basis and Fit)  ***
 ================================
  

 Atom Type    1  (O)
 ==============

 Valence Basis Sets:   9
 -----------------------
   1 S    9.800000
   1 S    6.800000
   2 S    7.580000
   2 S    2.880000
   2 S    1.720000
   2 P    4.080000
   2 P    2.080000
   2 P    1.120000
   3 D    2.000000

 Charge Fitting Sets (for the computation of the Coulomb Potential):  22
 -----------------------------------------------------------------------
   1 S   19.600000
   2 S   22.600000
   2 S   15.680000
   2 S   10.890000
   2 S    7.560000
   3 S    7.690000
   3 S    5.650000
   3 S    4.150000
   3 S    3.050000
   3 S    2.240000
   2 P   12.860000
   2 P    7.680000
   3 P    6.780000
   3 P    4.390000
   3 P    2.840000
   3 D    8.800000
   3 D    5.580000
   3 D    3.530000
   3 D    2.240000
   4 F    6.200000
   4 F    3.700000
   5 G    4.500000


 BAS: List of all Elementary Cartesian Basis Functions
 =====================================================

 The numbering in the list below (to the right of the function characteristics) is referred
 to in print-outs of MO eigenvectors and Mulliken populations in the BAS representation
 (as contrasted to the SFO representation).

 Notes:
 1. The functions are characterized by a polynomial prefactor (powers of x,y,z and r) and
    an exponential decay factor alpha.
 2. Since the basis sets are specific for an atom TYPE, the individual functions occur on
    all atoms of that type.
 3. The word 'Core' in the left margin signals that it is a Core Function (CF) : not a
    degree of freedom in the valence set, but only used to ensure orthogonalization of
    the other valence basis functions on the frozen Core Orbitals.


 (power of) X  Y  Z  R     Alpha  on Atom
            ==========     =====     ==========

 O                                    1
                                  ---------------------------------------------------------------------------
            0  0  0  0     9.800      1
            0  0  0  0     6.800      2
            0  0  0  1     7.580      3
            0  0  0  1     2.880      4
            0  0  0  1     1.720      5
            1  0  0  0     4.080      6
            0  1  0  0     4.080      7
            0  0  1  0     4.080      8
            1  0  0  0     2.080      9
            0  1  0  0     2.080     10
            0  0  1  0     2.080     11
            1  0  0  0     1.120     12
            0  1  0  0     1.120     13
            0  0  1  0     1.120     14
            2  0  0  0     2.000     15
            1  1  0  0     2.000     16
            1  0  1  0     2.000     17
            0  2  0  0     2.000     18
            0  1  1  0     2.000     19
            0  0  2  0     2.000     20

 Total number of charge fitting functions (nprimf)        84
 Total number of Cartesian basis functions (naos)         20
 Total number of Cartesian core functions  (ncos)          0



 BAS: List of all Elementary Cartesian Basis Functions
 =====================================================

 The numbering in the list below (to the right of the function characteristics) is referred
 to in print-outs of MO eigenvectors and Mulliken populations in the BAS representation
 (as contrasted to the SFO representation).

 Notes:
 1. The functions are characterized by a polynomial prefactor (powers of x,y,z and r) and
    an exponential decay factor alpha.
 2. Since the basis sets are specific for an atom TYPE, the individual functions occur on
    all atoms of that type.
 3. The word 'Core' in the left margin signals that it is a Core Function (CF) : not a
    degree of freedom in the valence set, but only used to ensure orthogonalization of
    the other valence basis functions on the frozen Core Orbitals.


 (power of) X  Y  Z  R     Alpha  on Atom
            ==========     =====     ==========

 O                                    1
                                  ---------------------------------------------------------------------------
            0  0  0  0     9.800      1
            0  0  0  0     6.800      2
            0  0  0  1     7.580      3
            0  0  0  1     2.880      4
            0  0  0  1     1.720      5
            1  0  0  0     4.080      6
            0  1  0  0     4.080      7
            0  0  1  0     4.080      8
            1  0  0  0     2.080      9
            0  1  0  0     2.080     10
            0  0  1  0     2.080     11
            1  0  0  0     1.120     12
            0  1  0  0     1.120     13
            0  0  1  0     1.120     14
            2  0  0  0     2.000     15
            1  1  0  0     2.000     16
            1  0  1  0     2.000     17
            0  2  0  0     2.000     18
            0  1  1  0     2.000     19
            0  0  2  0     2.000     20
1
 ***************************************************************************************************



                                              ***********************
                                              *  T E C H N I C A L  *
                                              ***********************
  



 =============================================================
 P A R A L L E L I Z A T I O N  and  V E C T O R I Z A T I O N
 =============================================================
  
 Nr of parallel processes:                                1
 Maximum vector length in NumInt loops:                 128



 ===============
 I O  vs.  C P U  ***  (store numerical data on disk or recalculate)  ***
 ===============
  
 Basis functions:   recalculate when needed
 Fit functions:     recalculate when needed

 IO buffersize (Mb):                                     64.000000



 =====================
 S C F   U P D A T E S
 =====================
  
 Max. nr. of cycles:                               100
 Convergence criterion:                              0.0000000100
   secondary criterion:                              0.0000000100

 Mix parameter (when DIIS does not apply):           0.2000000000
 Special mix parameter for the first cycle:          1.0000000000


 DIIS (Direct Inversion in Iteration Space)
    Replace damping when SCF Error is below:         0.5000000000
    Apply anyway after SCF cycle:
                                                     5
    (Max.) nr. of expansion vectors:                10

    Upperbound on expansion coefficients:            5.0000000000
    (when exceeded, IterationSpace is re-built)
    2nd Upperbound on coefficients:                 25.0000000000
    (when exceeded, simple damping will be used)
 Automatic ElectronSmearing (in case of problematic SCF convergence) disabled



 =================
 P R E C I S I O N  ***  (General: NumInt, NeglectFunctionTails, ...)  ***
 =================
  

 NumInt:           Target precision:                10.0000000000
 -------           Initial precision:               10.0000000000
                   Min. precision (optimization):   10.0000000000

 Neglect Functions:          Basis functions:        0.1000000000E-11
 ------------------          Fit functions:          0.1000000000E-11



 ===========================
 L I N E A R   S C A L I N G
 ===========================
  

 Cut-off radii density fit:                        0.1000000000E-13
 Overlap cut-off criterion AO matrix elements:     0.1000000000E-11
 Cut-offs for Coulomb potential and fitted density:0.1000000000E-13
 Cut-off criterion for Coulomb multipole terms:    0.1000000000E-13
 Progressive Convergence parameter:                 0.000000000    
1
 ***************************************************************************************************



                                            ***************************
                                            *  C O M P U T A T I O N  *
                                            ***************************
  

 Number of elements of the density matrix on this node (used, total):       210       210



 ====================================================
 Numerical Integration : Voronoi Polyhedra (Te Velde)
 ====================================================
  
 General Accuracy Parameter :                         10.00

 Symmetry used in the points section:  ATOM  


 Summary of the Symmetry Unique Points:
 --------------------------------------
    Nr. of used Symmetry Operators                     1

    Points in the Atomic Spheres                      58
    Points in the Atomic Polyhedra                     0
    Points in the Outer Region                         0
    ----------------------------------------------------
    Total                                             58

    Sum of Weights                                 58501.056183

 Total nr. of points:         58
 Nr. of blocks:                1
 Block length:                58
 Nr. of dummy points:          0


 Test of Precision of the Numerical Integration Grid
 ===================================================

 Integral of the Total Core Density:                   0.00000000000000



 =====
 S C F
 =====
  

 CYCLE    1
 orbitals (Q,E):
 ---------------
 S :1...5            ( 2.00   -29.9667)  ( 2.00    -6.4873)  ( 0.00    -2.6454)  ( 0.00     5.8329)
                     ( 0.00   110.4094)
 P :1...3            ( 4.00    -6.3614)  ( 0.00    -2.5161)  ( 0.00    -1.1381)
 D :1...1            ( 0.00    -2.4501)

 CYCLE    2
 d-Pmat  mean:  0.14E+01
 imax=      2: -0.11E+02
 orbitals (Q,E):
 ---------------
 S :1...3            ( 2.00   -14.9143)  ( 2.00    -0.0215)  ( 0.00     1.7398)
 P :1...2            ( 4.00     0.2341)  ( 0.00     1.1705)
 D :1...1            ( 0.00     1.5470)

 CYCLE    3
 d-Pmat  mean:  0.30E+00
 imax=      5: -0.11E+01
 orbitals (Q,E):
 ---------------
 S :1...3            ( 2.00   -16.3455)  ( 2.00    -0.3733)  ( 0.00     1.2788)
 P :1...2            ( 4.00     0.0565)  ( 0.00     0.7447)
 D :1...1            ( 0.00     1.2911)

 CYCLE    4
 d-Pmat  mean:  0.17E+00
 imax=     14: -0.71E+00
 orbitals (Q,E):
 ---------------
 S :1...3            ( 2.00   -17.3244)  ( 2.00    -0.6326)  ( 0.00     1.0132)
 P :1...2            ( 4.00    -0.1169)  ( 0.00     0.5143)
 D :1...1            ( 0.00     1.1345)

 CYCLE    5
 d-Pmat  mean:  0.19E+00
 imax=      5: -0.56E+00
 orbitals (Q,E):
 ---------------
 S :1...3            ( 2.00   -18.7733)  ( 2.00    -0.8190)  ( 0.00     0.8372)
 P :1...2            ( 4.00    -0.2726)  ( 0.00     0.3845)
 D :1...1            ( 0.00     1.1056)

 CYCLE    6
 d-Pmat  mean:  0.29E-01
 imax=      4:  0.94E-01
 orbitals (Q,E):
 ---------------
 S :1...3            ( 2.00   -18.9428)  ( 2.00    -0.8946)  ( 0.00     0.7861)
 P :1...2            ( 4.00    -0.3452)  ( 0.00     0.3476)
 D :1...1            ( 0.00     1.0601)

 CYCLE    7
 d-Pmat  mean:  0.56E-02
 imax=      4: -0.20E-01
 orbitals (Q,E):
 ---------------
 S :1...3            ( 2.00   -18.9125)  ( 2.00    -0.8807)  ( 0.00     0.7958)
 P :1...2            ( 4.00    -0.3316)  ( 0.00     0.3536)
 D :1...1            ( 0.00     1.0678)

 CYCLE    8
 d-Pmat  mean:  0.56E-04
 imax=     11:  0.15E-03
 orbitals (Q,E):
 ---------------
 S :1...3            ( 2.00   -18.9130)  ( 2.00    -0.8809)  ( 0.00     0.7957)
 P :1...2            ( 4.00    -0.3317)  ( 0.00     0.3536)
 D :1...1            ( 0.00     1.0677)

 CYCLE    9
 d-Pmat  mean:  0.33E-05
 imax=      4: -0.10E-04
 orbitals (Q,E):
 ---------------
 S :1...3            ( 2.00   -18.9130)  ( 2.00    -0.8809)  ( 0.00     0.7957)
 P :1...2            ( 4.00    -0.3317)  ( 0.00     0.3536)
 D :1...1            ( 0.00     1.0677)

 CYCLE   10
 d-Pmat  mean:  0.50E-07
 imax=      4: -0.15E-06
 orbitals (Q,E):
 ---------------
 S :1...3            ( 2.00   -18.9130)  ( 2.00    -0.8809)  ( 0.00     0.7957)
 P :1...2            ( 4.00    -0.3317)  ( 0.00     0.3536)
 D :1...1            ( 0.00     1.0677)

 CYCLE   11
 d-Pmat  mean:  0.28E-09
 imax=     11:  0.77E-09
 orbitals (Q,E):
 ---------------
 S :1...3            ( 2.00   -18.9130)  ( 2.00    -0.8809)  ( 0.00     0.7957)
 P :1...2            ( 4.00    -0.3317)  ( 0.00     0.3536)
 D :1...1            ( 0.00     1.0677)

 SCF CONVERGED

 CYCLE   12
1
 ***************************************************************************************************



                                                *******************
                                                *  R E S U L T S  *
                                                *******************
  
 *** Setting up for NEW gradients in focky
 *** Using FIT density in focky

 Scaled ZORA Orbital Energies, per Irrep and Spin:
 =================================================
                        Occup              E (au)              E (eV)       Diff (eV) with prev. cycle
                        -----      --------------------        ------       --------------------------
 S
               1        2.000     -0.18913003211732E+02      -514.649              -2.08E-10
               2        2.000     -0.88085148208227E+00       -23.969              -2.75E-10
               3        0.000      0.79568811027421E+00        21.652
               4        0.000      0.13452370793089E+02       366.058
               5        0.000      0.12163820385026E+03      3309.944
 P
               1        4.000     -0.33171965307125E+00        -9.027              -2.55E-10
               2        0.000      0.35357571331195E+00         9.621
               3        0.000      0.38379067049857E+01       104.435
 D
               1        0.000      0.10677225532800E+01        29.054


 Partially Occupied:
               1 P                -0.33171965307125E+00
  
 HOMO :        2 S                -0.88085148208227E+00
 LUMO :        2 P                 0.35357571331195E+00
  


 Orbital Energies, all Irreps
 ========================================

 Irrep        no.  (spin)   Occup              E (au)                E (eV)
 ---------------------------------------------------------------------------
 S             1             2.00       -0.18913003211732E+02      -514.6490
 S             2             2.00       -0.88085148208227E+00       -23.9692
 P             1             4.00       -0.33171965307125E+00        -9.0266
 P             2             0.00        0.35357571331195E+00         9.6213
 S             3             0.00        0.79568811027421E+00        21.6518
 D             1             0.00        0.10677225532800E+01        29.0542
 P             3             0.00        0.38379067049857E+01       104.4348
 S             4             0.00        0.13452370793089E+02       366.0576
 S             5             0.00        0.12163820385026E+03      3309.9439


 All Electron Calculation, thus no Orbital Energies of the Core Orbitals are calculated



 =======================================
 M U L L I K E N   P O P U L A T I O N S
 =======================================
  
 The survey below gives for each atom:
 a) the total charge (Z minus electrons)
 b) the net spin polarization (nr of electrons spin-A minus spin-B)
 c) for each spin the atomic electron valence density (integrated) per L-value.

 Atom              Charge    Spin density          S         P         D         F
 ----              ------    ------------       ------    ------    ------    ------
 1 O               0.0000                       4.0000    4.0000    0.0000    0.0000

 Populations of individual BAS functions
 ----------------------------------------
 1 O            0.6829  1.2736  0.0087  1.1504  0.8843  0.2472  0.2472  0.2472  0.7500  0.7500
                0.7500  0.3361  0.3361  0.3361  0.0000  0.0000  0.0000  0.0000  0.0000  0.0000

 Gross Charges per Atom (Z minus electrons)
 ==========================================
             0.0000
 Net Total:  0.00000000


 Atom-Atom Population Matrix (off-diagonal elements not doubled)
 ===============================================================

     1 :     8.0000



 =============
 Dipole Moment  ***  (Debye)  ***
 =============
  
 Vector   :         0.00000000      0.00000000      0.00000000
 Magnitude:         0.00000000

 This molecular dipole moment is calculated with analytic integration



 =========================================
 Quadrupole Moment (Buckingham convention)  ***  (a.u.)  ***
 =========================================
  
      quad-xx        quad-xy        quad-xz        quad-yy        quad-yz        quad-zz
      0.00000000     0.00000000     0.00000000     0.00000000     0.00000000     0.00000000

 This molecular quadrupole moment is calculated with analytic integration



 ===============================================================================
 Electrostatic potential at the Nuclei due to valence electrons and other nuclei
 ===============================================================================
  
         Atom                  Potential
         ----                  ---------
     1)   O                  22.26109774
 
 
 ========================
 No memory problems found
 ========================
 
 Maximum number of active allocate calls:         378
 
 *******************************************************************************

                             A D F   E X I T
 NORMAL TERMINATION



 =================
 Timing Statistics
 =================
  
 Total Used :                     CPU=        0.16      System=        0.04     Elapsed=        0.20

 Calls  Section                     ( Mean, Percentage )
 ---------------------------------------------------------------------------------------------------
     3  ><      ................      0.00    0.36             0.00    0.00             0.00    0.29
     1  INIT    ................      0.01    5.41             0.00    0.62             0.01    4.50
     1  GEOMET  ................      0.01    6.75             0.02   59.93             0.04   17.35
     1  INPUTA  ................      0.00    0.66             0.00    0.00             0.00    0.53
     1  MAINSY  ................      0.00    2.53             0.00    0.00             0.00    2.03
     1  SYMFIT  ................      0.00    0.17             0.00    0.00             0.00    0.14
     1  CORORT  ................      0.00    0.12             0.00    0.00             0.00    0.10
     1  SYMORB  ................      0.00    0.29             0.00    0.00             0.00    0.23
     1  FITINT  ................      0.00    1.76             0.00    0.00             0.00    1.41
     1  CLSMAT  ................      0.00    0.14             0.00    0.00             0.00    0.11
     1  ORTHON  ................      0.00    0.55             0.00    0.00             0.00    0.44
     1  GENPT   ................      0.01    3.52             0.00    0.00             0.01    2.82
     1  PTBAS   ................      0.00    1.40             0.00    0.00             0.00    1.12
    12  FOCKY   ................      0.01   49.66             0.00   26.16             0.01   44.95
    12  FOCKTR  ................      0.00    1.50             0.00    0.72             0.00    1.35
    12  FOCKNM  ................      0.00    0.18             0.00    0.09             0.00    0.16
    12  SDIIS   ................      0.00    1.93             0.00    1.47             0.00    1.84
    12  EMERGE  ................      0.00   10.94             0.00   11.02             0.00   10.95
     1  COREPS  ................      0.00    1.36             0.00    0.00             0.00    1.09
     1  POPAN   ................      0.00    0.99             0.00    0.00             0.00    0.79
     1  DEBYE   ................      0.00    0.18             0.00    0.00             0.00    0.14
     1  QMPOT   ................      0.00    1.54             0.00    0.00             0.00    1.23
     1  EXIT PROCEDURE .........      0.01    8.06             0.00    0.00             0.01    6.45


 Currently Open Files (EXIT00)
 ====================

 Unit    Access Format  Status   Type       Ident (file)
 -------------------------------------------------------
   3      SEQ    FORM   TRANSP  NORMAL      LOGFILE
                                          ( logfile )


 Buffered I/O statistics
 =======================
 Memory available:                     67108864
 Number of records fitting in memory:     16131
 Input :   1.3% of                         4647  *4k bytes
 Output:   8.9% of                         2247  *4k bytes
 Records from serial files evicted:           0
                    others evicted:           0
 Hash table lookups:      18750 with          0 conflicts (  0.00%)

 ***************************************************************************************************
 (LOGFILE)
 <Jan01-2013> <00:00:00>  DIRAC 2013.01  RunTime: Jan01-2013 00:00:00  Nodes: 1  Procs: 1
 <Jan01-2013> <00:00:00>  NORMAL TERMINATION
 <Jan01-2013> <00:00:00>  END
 <Jan01-2013> <00:00:00>  ADF 2013.01  RunTime: Jan01-2013 00:00:00  Nodes: 1  Procs: 1
 <Jan01-2013> <00:00:00>  Hydrogen (TZP)
 <Jan01-2013> <00:00:00>  RunType   : CREATE
 <Jan01-2013> <00:00:00>  Net Charge: 0 (Nuclei minus Electrons)
 <Jan01-2013> <00:00:00>  Symmetry  : ATOM
  Coordinates
    Atom         X           Y           Z   (Angstrom)
    1.H         0.000000    0.000000    0.000000
 <Jan01-2013> <00:00:00>  >>>> CORORT
 <Jan01-2013> <00:00:00>  >>>> FITINT
 <Jan01-2013> <00:00:00>  >>>> CLSMAT
 <Jan01-2013> <00:00:00>  >>>> ORTHON
 <Jan01-2013> <00:00:00>  >>>> GENPT
 <Jan01-2013> <00:00:00>  Acc.Num.Int.=  10.000
 <Jan01-2013> <00:00:00>  Block Length=  35
 <Jan01-2013> <00:00:00>  >>>> PTBAS
 <Jan01-2013> <00:00:00>  >>>> CYCLE
 <Jan01-2013> <00:00:00>    1
 <Jan01-2013> <00:00:00>    2  ErrMat   0.00249596  MaxEl -0.00249472
 <Jan01-2013> <00:00:00>    3  ErrMat   0.00062444  MaxEl  0.00061403
 <Jan01-2013> <00:00:00>    4  ErrMat   0.00001581  MaxEl  0.00001400
 <Jan01-2013> <00:00:00>    5  ErrMat   0.00000002  MaxEl -0.00000002
 <Jan01-2013> <00:00:00>    6  ErrMat   0.00000000  MaxEl  0.00000000
 <Jan01-2013> <00:00:00>  SCF converged
 <Jan01-2013> <00:00:00>    7  ErrMat   0.00000000  MaxEl  0.00000000
 <Jan01-2013> <00:00:00>   Solutions with partially occupied orbitals may not be
 <Jan01-2013> <00:00:00>   lowest in energy. You might consider lowering the
 <Jan01-2013> <00:00:00>   symmetry in the input and explicitly specifying integer
 <Jan01-2013> <00:00:00>   occupations. In that case always check that you obtain
 <Jan01-2013> <00:00:00>   an aufbau solution.
 <Jan01-2013> <00:00:00>  >>>> POPAN
 <Jan01-2013> <00:00:00>  >>>> DEBYE
 <Jan01-2013> <00:00:00>  NORMAL TERMINATION
 <Jan01-2013> <00:00:00>  END
 <Jan01-2013> <00:00:00>  DIRAC 2013.01  RunTime: Jan01-2013 00:00:00  Nodes: 1  Procs: 1
 <Jan01-2013> <00:00:00>  NORMAL TERMINATION
 <Jan01-2013> <00:00:00>  END
 <Jan01-2013> <00:00:01>  ADF 2013.01  RunTime: Jan01-2013 00:00:01  Nodes: 1  Procs: 1
 <Jan01-2013> <00:00:01>  Oxygen (TZP)
 <Jan01-2013> <00:00:01>  RunType   : CREATE
 <Jan01-2013> <00:00:01>  Net Charge: 0 (Nuclei minus Electrons)
 <Jan01-2013> <00:00:01>  Symmetry  : ATOM
  Coordinates
    Atom         X           Y           Z   (Angstrom)
    1.O         0.000000    0.000000    0.000000
 <Jan01-2013> <00:00:01>  >>>> CORORT
 <Jan01-2013> <00:00:01>  >>>> FITINT
 <Jan01-2013> <00:00:01>  >>>> CLSMAT
 <Jan01-2013> <00:00:01>  >>>> ORTHON
 <Jan01-2013> <00:00:01>  >>>> GENPT
 <Jan01-2013> <00:00:01>  Acc.Num.Int.=  10.000
 <Jan01-2013> <00:00:01>  Block Length=  58
 <Jan01-2013> <00:00:01>  >>>> PTBAS
 <Jan01-2013> <00:00:01>  >>>> CYCLE
 <Jan01-2013> <00:00:01>    1
 <Jan01-2013> <00:00:01>    2  ErrMat   8.20306701  MaxEl  5.21711031
 <Jan01-2013> <00:00:01>    3  ErrMat   3.42903042  MaxEl -2.40925268
 <Jan01-2013> <00:00:01>    4  ErrMat   2.80462787  MaxEl -1.89873382
 <Jan01-2013> <00:00:01>    5  ErrMat   1.89952944  MaxEl -1.26346350
 <Jan01-2013> <00:00:01>    6  ErrMat   0.19596939  MaxEl -0.10774442
 <Jan01-2013> <00:00:01>    7  ErrMat   0.05108113  MaxEl  0.02731641
 <Jan01-2013> <00:00:01>    8  ErrMat   0.00048208  MaxEl -0.00029995
 <Jan01-2013> <00:00:01>    9  ErrMat   0.00002637  MaxEl  0.00001247
 <Jan01-2013> <00:00:01>   10  ErrMat   0.00000048  MaxEl  0.00000030
 <Jan01-2013> <00:00:01>   11  ErrMat   0.00000000  MaxEl  0.00000000
 <Jan01-2013> <00:00:01>  SCF converged
 <Jan01-2013> <00:00:01>   12  ErrMat   0.00000000  MaxEl  0.00000000
 <Jan01-2013> <00:00:01>   Solutions with partially occupied orbitals may not be
 <Jan01-2013> <00:00:01>   lowest in energy. You might consider lowering the
 <Jan01-2013> <00:00:01>   symmetry in the input and explicitly specifying integer
 <Jan01-2013> <00:00:01>   occupations. In that case always check that you obtain
 <Jan01-2013> <00:00:01>   an aufbau solution.
 <Jan01-2013> <00:00:01>  >>>> POPAN
 <Jan01-2013> <00:00:01>  >>>> DEBYE
 <Jan01-2013> <00:00:01>  NORMAL TERMINATION
 <Jan01-2013> <00:00:01>  END

 *******************************************************************************
 *                                                                             *
 *  -------------------------------------                                      *
 *   Amsterdam Density Functional  (ADF)         2013.01   April 2, 2013       *
 *  -------------------------------------                                      *
 *                                               Build 201304112106            *
 *                                                                             *
 *                                                                             *
 *                            =====================                            *
 *                            |                   |                            *
 *                            |     D I R A C     |                            *
 *                            |                   |                            *
 *                            =====================                            *
 *                                                                             *
 *                                                                             *
 *   Online information and documentation:  http://www.scm.com                 *
 *   E-mail:  support@scm.com   info@scm.com                                   *
 *                                                                             *
 *   Scientific publications using ADF results must be properly referenced     *
 *   See the User Manuals (or the web site) for recommended citations          *
 *   The terms and conditions of the End User License Agreement apply to       *
 *   the use of ADF, http://www.scm.com/Sales/LicAgreement.html                *
 *                                                                             *
 ****************************  x86_64_linux_intel  *****************************
 
 Licensed to: Prof. Cacier Hadad / University of Antioquia / Medellin / COLOMBIA
 SCM User ID: u15319
  
 DIRAC 2013.01  RunTime: Jan01-2013 00:00:01  Nodes: 1  Procs: 1

 Temporary files are created in /tmp/kid_0.xw50jG

1
 MERCURY ATOM all electron RELATIVISTIC, Point Nuc, A and c f
 N J RN H ZN XION ANUC CLIGHT
 5000   22100.00000000197.36710137 80.00000000  0.00000000  201.970625  0.1370360E+03
  PH   PHI     EPS        DEL        DELRVR
  0.30  0.30     2500.00  0.00001000  0.00001000
 IDIRC  NC1  NDEBU NPRIN  IPUN IRCOR IWCOR
   1   300     0     0     0     0     0
   XALPHA      XLATTER      RNUC
  0.70000000  0.00000000  0.00000000 Point Charge
   XN   XL   XJ      XE          XZ      XDELL
  1.0  0.0  0.5   -2600.000       2.000     0.00000
  2.0  0.0  0.5    -425.000       2.000     0.00000
  2.0  1.0  0.5    -425.000       2.000     0.00000
  2.0  1.0  1.5    -425.000       4.000     0.00000
  3.0  0.0  0.5    -100.000       2.000     0.00000
  3.0  1.0  0.5    -100.000       2.000     0.00000
  3.0  1.0  1.5    -100.000       4.000     0.00000
  3.0  2.0  1.5     -80.000       4.000     0.00000
  3.0  2.0  2.5     -80.000       6.000     0.00000
  4.0  0.0  0.5     -22.000       2.000     0.00000
  4.0  1.0  0.5     -20.000       2.000     0.00000
  4.0  1.0  1.5     -20.000       4.000     0.00000
  4.0  2.0  1.5     -11.000       4.000     0.00000
  4.0  2.0  2.5     -11.000       6.000     0.00000
  5.0  0.0  0.5      -3.000       2.000     0.00000
  5.0  1.0  0.5      -2.200       2.000     0.00000
  5.0  1.0  1.5      -2.200       4.000     0.00000
  4.0  3.0  2.5      -1.000       6.000     0.00000
  4.0  3.0  3.5      -1.000       8.000     0.00000
  5.0  2.0  1.5      -0.500       4.000     0.00000
  5.0  2.0  2.5      -0.500       6.000     0.00000
  6.0  0.0  0.5      -0.200       2.000     0.00000
 ICORP=  0  NPCL=  0  DEMP=0.00  PEPS=0.000000
 R(1)=  0.1000000E-08 D=  0.1005080E+01 RNUC=  0.0000000E+00
 converged at cycle   71  DENSITY AVERAGING    0.0786
  MAXIMUM ERROR IN R.V(R) IS   0.62886379E-05
 Q,EY,EV,EZ,ESUM,ETOT,RHO  0.800000E+02 -0.496572E+03 -0.348382E+05 -0.496228E+05 -0.121443E+05 -0.196607E+05  0.241251E-08


 DIRAC CALCULATION
1                    MERCURY ATOM all electron RELATIVISTIC, Point Nuc, A and c from libtc


 EXCHANGE COEFFICIENT=  0.7000000           TAIL CORRECTION=  0.           NUCLEAR RADIUS=  0.000E+00
0                       ORBITAL    N    L    J     ELECTRONS     EIGENVALUE                DELTA OF EIGENV.

                          1S1/2  1.0  0.0  0.5     2.000       -0.3050991E+04                 0.4924760E-04
                          2S1/2  2.0  0.0  0.5     2.000       -0.5405089E+03                 0.4254074E-04
                          2P1/2  2.0  1.0  0.5     2.000       -0.5187363E+03                 0.4411548E-04
                          2P3/2  2.0  1.0  1.5     4.000       -0.4471398E+03                 0.4301762E-04
                          3S1/2  3.0  0.0  0.5     2.000       -0.1282616E+03                 0.3041592E-04
                          3P1/2  3.0  1.0  0.5     2.000       -0.1184367E+03                 0.3137989E-04
                          3P3/2  3.0  1.0  1.5     4.000       -0.1025748E+03                 0.2995242E-04
                          3D3/2  3.0  2.0  1.5     4.000       -0.8626975E+02                 0.3222472E-04
                          3D5/2  3.0  2.0  2.5     6.000       -0.8286728E+02                 0.3175282E-04
                          4S1/2  4.0  0.0  0.5     2.000       -0.2816781E+02                 0.1668735E-04
                          4P1/2  4.0  1.0  0.5     2.000       -0.2395484E+02                 0.1669817E-04
                          4P3/2  4.0  1.0  1.5     4.000       -0.2011425E+02                 0.1516031E-04
                          4D3/2  4.0  2.0  1.5     4.000       -0.1321824E+02                 0.1506585E-04
                          4D5/2  4.0  2.0  2.5     6.000       -0.1250170E+02                 0.1460097E-04
                          5S1/2  5.0  0.0  0.5     2.000       -0.4322160E+01                 0.4190347E-05
                          5P1/2  5.0  1.0  0.5     2.000       -0.2925196E+01                 0.3615407E-05
                          5P3/2  5.0  1.0  1.5     4.000       -0.2244086E+01                 0.2893507E-05
                          4F5/2  4.0  3.0  2.5     6.000       -0.3611586E+01                 0.1388062E-04
                          4F7/2  4.0  3.0  3.5     8.000       -0.3456598E+01                 0.1362401E-04
                          5D3/2  5.0  2.0  1.5     4.000       -0.3813662E+00                 0.1502810E-05
                          5D5/2  5.0  2.0  2.5     6.000       -0.3130964E+00                 0.1345942E-05
                          6S1/2  6.0  0.0  0.5     2.000       -0.2314499E+00                 0.2838078E-06


                                        NUCLEAR CHARGE=   80.000000
                            INTEGRAL OF CHARGE DENSITY=   80.000000
                           SUM OF THE ORBITAL ENERGIES= -12144.2566
                                          TOTAL ENERGY= -19660.7046
                                        KINETIC ENERGY=  22693.9156
                             NUCLEAR ATTRACTION ENERGY= -49622.7822
                             ELECTRON REPULSION ENERGY=   7640.5911
                                       EXCHANGE ENERGY=   -372.4292

 *******************************************************************************

                             D I R A C   E X I T
 NORMAL TERMINATION



 =================
 Timing Statistics
 =================
  
 Total Used :                     CPU=        0.76      System=        0.02     Elapsed=        0.78

 Calls  Section                     ( Mean, Percentage )
 ---------------------------------------------------------------------------------------------------
     2  ><      ................      0.00    0.00             0.00    0.04             0.00    0.00
     1  EXIT PROCEDURE .........      0.76  100.00             0.02   99.96             0.78  100.00


 Currently Open Files (EXIT00)
 ====================

 Unit    Access Format  Status   Type       Ident (file)
 -------------------------------------------------------
   3      SEQ    FORM   TRANSP  NORMAL      LOGFILE
                                          ( logfile )


 Buffered I/O statistics
 =======================
 Memory available:                     67108864
 Number of records fitting in memory:     16131
 Input : 100.0% of                            0  *4k bytes
 Output: 100.0% of                            0  *4k bytes
 Records from serial files evicted:           0
                    others evicted:           0
 Hash table lookups:          0 with          0 conflicts (100.00%)
(INPUT FILE)
Create Hg   file=/home/danian/Documents/programas/adf2013.01/atomicdata/ZORA/TZP/Hg
 XC
 GGA PBE
End
relativistic ZORA
Corepotentials t12.rel
End Input

 *******************************************************************************
 *                                                                             *
 *  -------------------------------------                                      *
 *   Amsterdam Density Functional  (ADF)         2013.01   April 2, 2013       *
 *  -------------------------------------                                      *
 *                                               Build 201304112215            *
 *                                                                             *
 *                                                                             *
 *                              =================                              *
 *                              |               |                              *
 *                              |     A D F     |                              *
 *                              |               |                              *
 *                              =================                              *
 *                                                                             *
 *                                                                             *
 *   Online information and documentation:  http://www.scm.com                 *
 *   E-mail:  support@scm.com   info@scm.com                                   *
 *                                                                             *
 *   Scientific publications using ADF results must be properly referenced     *
 *   See the User Manuals (or the web site) for recommended citations          *
 *   The terms and conditions of the End User License Agreement apply to       *
 *   the use of ADF, http://www.scm.com/Sales/LicAgreement.html                *
 *                                                                             *
 ********************  x86_64_linux_intel / platform_mpi  **********************
 
 Licensed to: Prof. Cacier Hadad / University of Antioquia / Medellin / COLOMBIA
 SCM User ID: u15319
  
 ADF 2013.01  RunTime: Jan01-2013 00:00:02  Nodes: 1  Procs: 1

 Temporary files are created in /tmp/kid_0.1m4R6w

 Mercury (TZP, all electron)



 ===========================
 A T T A C H E D   F I L E S
 ===========================
  
 CREATE - Data File:    /home/danian/Documents/programas/adf2013.01/atomicdata/ZORA/TZP/Hg
                        Mercury (TZP, all electron)
 Core Potentials:
         file : t12.rel



 ===============================
 M O D E L   P A R A M E T E R S
 ===============================
  
 DENSITY FUNCTIONAL POTENTIAL (scf)
    LDA:                               PW92                                    == Not Default ==
    Gradient Corrections:              PBEc PBEx                               == Not Default ==

 SPIN  (restricted / unrestr.)
    Molecule:                          Restricted                               

 OTHER ASPECTS
    Relativistic Corrections:          scalar (ZORA,SAPA)                      == Not Default ==

    Nuclear Charge Density Model:      Point Charge Nuclei                                                                                                                                                                                     
    Core Treatment:                    Frozen Orbital(s)                        

    Hyperfine or Zeeman Interaction:   ---                                      



 =====================================
 S Y M M E T R Y ,   E L E C T R O N S
 =====================================
  
 Symmetry: ATOM

 Irreducible Representations, including subspecies
 -------------------------------------------------
 S
 P:x  P:y  P:z
 D:z2  D:x2-y2  D:xy  D:xz  D:yz
 F:z3  F:z  F:xyz  F:z2x  F:z2y  F:x  F:y


 Configuration of Valence Electrons
 ==================================

          Occupation Numbers
          -------------------------------------------------
 S        6*2
 P        4*6
 D        3*10
 F        14
          -------------------------------------------------

 Total:   80

 Net Charge: 0 (Nuclei minus Electrons)

 Preset values for MO occupations will be applied through SCF cycle no. 1000000
 Thereafter, the program will assign electrons to MOs that are spatially
 similar to the occupied MOs in a "reference" cycle ("KeepOrbitals").
 The reference cycle is always the PREVIOUS cycle: it will evolve with
 the SCF procedure.



 ================================
 (Slater-type)  F U N C T I O N S  ***  (Basis and Fit)  ***
 ================================
  

 Atom Type    1  (Hg)
 ==============

 Valence Basis Sets:  34
 -----------------------
   1 S  781.000000
   1 S  188.400000
   1 S   89.200000
   2 S  101.600000
   2 S   38.900000
   3 S   49.500000
   3 S   21.100000
   4 S   12.950000
   4 S    9.200000
   5 S    7.200000
   5 S    4.800000
   6 S    3.300000
   6 S    2.050000
   6 S    1.280000
   2 P  188.400000
   2 P   67.300000
   2 P   37.150000
   3 P   21.100000
   3 P   15.450000
   4 P   13.850000
   4 P    9.450000
   5 P    6.150000
   5 P    3.850000
   3 D   28.450000
   3 D   18.200000
   4 D   12.450000
   4 D    8.050000
   5 D    5.300000
   5 D    3.050000
   5 D    1.710000
   4 F   16.600000
   4 F    9.250000
   4 F    5.200000
   6 P    2.050000

 Charge Fitting Sets (for the computation of the Coulomb Potential):  74
 -----------------------------------------------------------------------
   1 S 1562.000000
   1 S 1145.694000
   1 S  840.343000
   1 S  616.374000
   1 S  452.097000
   1 S  331.604000
   1 S  243.224000
   1 S  178.400000
   1 S  106.780000
   2 S  118.330000
   2 S   79.580000
   3 S   78.560000
   3 S   56.200000
   4 S   53.150000
   4 S   39.560000
   5 S   36.680000
   5 S   28.080000
   6 S   25.760000
   6 S   20.150000
   7 S   18.390000
   7 S   14.630000
   8 S   13.300000
   8 S   10.730000
   9 S    9.750000
   9 S    7.960000
  10 S    7.220000
  10 S    5.950000
  10 S    4.910000
  11 S    4.450000
  11 S    3.700000
  11 S    3.080000
  11 S    2.560000
   2 P  126.350000
   3 P  105.550000
   4 P   86.550000
   5 P   70.670000
   5 P   47.960000
   6 P   39.200000
   6 P   27.450000
   7 P   22.500000
   7 P   16.150000
   8 P   13.290000
   8 P    9.740000
   9 P    8.050000
   9 P    5.990000
  10 P    4.980000
  10 P    3.760000
   3 D  107.400000
   4 D   77.960000
   5 D   57.090000
   6 D   42.260000
   7 D   31.610000
   7 D   20.760000
   8 D   15.680000
   8 D   10.570000
   9 D    8.060000
   9 D    5.550000
  10 D    4.260000
  10 D    2.990000
   4 F   98.450000
   5 F   61.390000
   6 F   39.250000
   7 F   25.630000
   8 F   17.060000
   8 F   10.160000
   9 F    6.870000
   9 F    4.210000
   5 G   46.400000
   6 G   30.070000
   7 G   19.890000
   8 G   13.400000
   8 G    8.070000
   9 G    5.520000
   9 G    3.420000


 BAS: List of all Elementary Cartesian Basis Functions
 =====================================================

 The numbering in the list below (to the right of the function characteristics) is referred
 to in print-outs of MO eigenvectors and Mulliken populations in the BAS representation
 (as contrasted to the SFO representation).

 Notes:
[...]
                                   11.15%     1 S              -6.497  1.00     4 H
                                    2.54%     2 S               2.461  0.00     3 H
                                    2.25%     2 S               2.461  0.00     4 H
                                    1.66%     3 D:yz           -9.884  2.00     1 Hg
                                    1.21%     3 D:xz           -9.884  2.00     1 Hg
                                    1.10%     3 D:x2-y2        -9.884  2.00     1 Hg
     -26.453  2.00    38 A         28.09%     3 D:xy           -9.884  2.00     1 Hg
                                   19.16%     3 D:x2-y2        -9.884  2.00     1 Hg
                                   13.25%     1 P:y            -9.027  1.33     2 O
                                   11.95%     3 D:yz           -9.884  2.00     1 Hg
                                   11.64%     3 D:z2           -9.884  2.00     1 Hg
                                    6.34%     1 P:z            -9.027  1.33     2 O
                                    2.46%     3 D:xz           -9.884  2.00     1 Hg
                                    2.22%     1 P:x            -9.027  1.33     2 O
                                    1.36%     6 S              -6.786  2.00     1 Hg
                                    1.26%     1 S              -6.497  1.00     4 H
     -25.814  2.00    39 A         40.44%     3 D:yz           -9.884  2.00     1 Hg
                                   30.02%     3 D:xy           -9.884  2.00     1 Hg
                                   18.85%     3 D:x2-y2        -9.884  2.00     1 Hg
                                    9.26%     3 D:z2           -9.884  2.00     1 Hg
     -25.724  2.00    40 A         26.47%     3 D:x2-y2        -9.884  2.00     1 Hg
                                   24.82%     3 D:z2           -9.884  2.00     1 Hg
                                   17.55%     3 D:yz           -9.884  2.00     1 Hg
                                   15.66%     3 D:xz           -9.884  2.00     1 Hg
                                   10.36%     3 D:xy           -9.884  2.00     1 Hg
                                    1.40%     1 P:z            -9.027  1.33     2 O
     -25.663  2.00    41 A         69.61%     3 D:xz           -9.884  2.00     1 Hg
                                   14.66%     3 D:yz           -9.884  2.00     1 Hg
                                   10.43%     3 D:x2-y2        -9.884  2.00     1 Hg
                                    3.72%     3 D:xy           -9.884  2.00     1 Hg
                                    1.38%     3 D:z2           -9.884  2.00     1 Hg
     -25.661  2.00    42 A         48.10%     3 D:z2           -9.884  2.00     1 Hg
                                   17.57%     3 D:x2-y2        -9.884  2.00     1 Hg
                                   15.45%     3 D:xy           -9.884  2.00     1 Hg
                                    9.47%     3 D:xz           -9.884  2.00     1 Hg
                                    9.11%     3 D:yz           -9.884  2.00     1 Hg
     -23.892  2.00    43 A         33.88%     1 P:y            -9.027  1.33     2 O
                                   14.73%     1 P:z            -9.027  1.33     2 O
                                   12.82%     6 S              -6.786  2.00     1 Hg
                                   10.75%     3 D:xy           -9.884  2.00     1 Hg
                                    5.42%     3 D:x2-y2        -9.884  2.00     1 Hg
                                    4.07%     2 S             -23.971  2.00     2 O
                                    3.94%     3 D:z2           -9.884  2.00     1 Hg
                                    3.54%     3 D:yz           -9.884  2.00     1 Hg
                                    1.58%     1 S              -6.497  1.00     4 H
                                    1.53%     5 P:y             0.197  0.00     1 Hg
                                    1.42%     1 S              -6.497  1.00     3 H
                                    1.14%     1 P:x            -9.027  1.33     2 O
                                    1.11%     3 D:xz           -9.884  2.00     1 Hg
                                    1.02%     2 S               2.461  0.00     4 H
     -21.539  2.00    44 A         61.96%     1 P:x            -9.027  1.33     2 O
                                   23.36%     1 P:z            -9.027  1.33     2 O
                                    6.16%     6 S              -6.786  2.00     1 Hg
                                    2.15%     2 S             -23.971  2.00     2 O
                                    1.46%     1 P:x            11.028  0.00     4 H
                                    1.06%     1 P:x            11.028  0.00     3 H
     -19.942  0.00    45 A         76.26%     6 S              -6.786  2.00     1 Hg
                                    7.75%     1 P:y            -9.027  1.33     2 O
                                    7.47%     1 P:x            -9.027  1.33     2 O
                                    2.35%     5 P:y             0.197  0.00     1 Hg
                                    1.14%     7 S               1.824  0.00     1 Hg
                                    1.07%     2 S             -23.971  2.00     2 O



 ===============================================================================
 Electrostatic potential at the Nuclei due to valence electrons and other nuclei
 ===============================================================================
  
         Atom                  Potential
         ----                  ---------
     1)   Hg                629.40749498
     2)   O                  21.82723168
     3)   H                   0.47822153
     4)   H                   0.47979180
     5)   Xx                 -0.32196263
     6)   Xx                 -0.60677168
     7)   Xx                 -0.49257250
     8)   Xx                 -0.42251726
     9)   Xx                 -0.44322602
    10)   Xx                 -0.40072206
    11)   Xx                 -0.28850276
    12)   Xx                 -0.30924073
 
 
 ========================
 No memory problems found
 ========================
 
 Maximum number of active allocate calls:        1190
 
 *******************************************************************************

                             A D F   E X I T
 NORMAL TERMINATION



 =================
 Timing Statistics
 =================
  
 Total Used :                     CPU=       10.71      System=        0.10     Elapsed=       10.81

 Calls  Section                     ( Mean, Percentage )
 ---------------------------------------------------------------------------------------------------
     3  ><      ................      0.00    0.00             0.00    0.00             0.00    0.00
     1  INIT    ................      0.43    4.01             0.00    0.59             0.43    3.98
     1  GEOMET  ................      0.02    0.14             0.02   20.75             0.04    0.33
     1  FRAGM   ................      0.01    0.10             0.00    0.00             0.01    0.10
     1  INPUTA  ................      0.00    0.00             0.00    0.00             0.00    0.00
     1  ATDEN   ................      0.01    0.09             0.00    0.00             0.01    0.09
     1  MAINSY  ................      0.01    0.07             0.00    0.00             0.01    0.07
     1  SYMFIT  ................      0.00    0.01             0.00    0.00             0.00    0.01
     1  CORORT  ................      0.00    0.00             0.00    0.00             0.00    0.00
     1  SYMORB  ................      0.00    0.01             0.00    0.00             0.00    0.01
     1  FITINT  ................      0.08    0.77             0.00    0.00             0.08    0.77
     1  CLSMAT  ................      0.36    3.36             0.00    0.00             0.36    3.33
     1  ORTHON  ................      0.01    0.08             0.00    0.00             0.01    0.08
     1  GENPT   ................      0.28    2.60             0.01    8.27             0.29    2.65
     1  PTBAS   ................      0.22    2.08             0.00    4.14             0.23    2.09
    14  FOCKY   ................      0.45   58.43             0.00   27.07             0.45   58.16
    14  FOCKTR  ................      0.00    0.17             0.00    1.05             0.00    0.18
    14  FOCKNM  ................      0.00    0.00             0.00    0.03             0.00    0.00
    14  SDIIS   ................      0.00    0.24             0.00    1.68             0.00    0.25
    14  EMERGE  ................      0.01    1.43             0.00   11.56             0.01    1.52
     1  COREPS  ................      0.28    2.66             0.00    4.14             0.29    2.67
     1  TOTEN   ................      2.50   23.31             0.01   12.43             2.51   23.21
     1  POPAN   ................      0.00    0.02             0.00    0.00             0.00    0.02
     1  DEBYE   ................      0.01    0.10             0.00    0.00             0.01    0.10
     1  INPUTE  ................      0.00    0.00             0.00    0.00             0.00    0.00
     1  SYMORE  ................      0.00    0.01             0.00    0.00             0.00    0.01
     1  METS    ................      0.00    0.01             0.00    0.00             0.00    0.00
     1  CETS    ................      0.00    0.01             0.00    4.12             0.00    0.05
     1  ELNRGY  ................      0.01    0.05             0.00    0.00             0.01    0.05
     1  POPUL   ................      0.00    0.05             0.00    4.15             0.01    0.08
     1  QMPOT   ................      0.00    0.01             0.00    0.00             0.00    0.01
     1  EXIT PROCEDURE .........      0.02    0.18             0.00    0.00             0.02    0.18


 Currently Open Files (EXIT00)
 ====================

 Unit    Access Format  Status   Type       Ident (file)
 -------------------------------------------------------
   3      SEQ    FORM   TRANSP  NORMAL      LOGFILE
                                          ( logfile )


 Buffered I/O statistics
 =======================
 Memory available:                     67108864
 Number of records fitting in memory:     16131
 Input :   1.0% of                        33964  *4k bytes
 Output:   4.7% of                        13924  *4k bytes
 Records from serial files evicted:           0
                    others evicted:           0
 Hash table lookups:     131670 with          0 conflicts (  0.00%)

 ***************************************************************************************************
 (LOGFILE)
 <Jan01-2013> <00:00:00>  DIRAC 2013.01  RunTime: Jan01-2013 00:00:00  Nodes: 1  Procs: 1
 <Jan01-2013> <00:00:00>  NORMAL TERMINATION
 <Jan01-2013> <00:00:00>  END
 <Jan01-2013> <00:00:00>  ADF 2013.01  RunTime: Jan01-2013 00:00:00  Nodes: 1  Procs: 1
 <Jan01-2013> <00:00:00>  Hydrogen (TZP)
 <Jan01-2013> <00:00:00>  RunType   : CREATE
 <Jan01-2013> <00:00:00>  Net Charge: 0 (Nuclei minus Electrons)
 <Jan01-2013> <00:00:00>  Symmetry  : ATOM
  Coordinates
    Atom         X           Y           Z   (Angstrom)
    1.H         0.000000    0.000000    0.000000
 <Jan01-2013> <00:00:00>  >>>> CORORT
 <Jan01-2013> <00:00:00>  >>>> FITINT
 <Jan01-2013> <00:00:00>  >>>> CLSMAT
 <Jan01-2013> <00:00:00>  >>>> ORTHON
 <Jan01-2013> <00:00:00>  >>>> GENPT
 <Jan01-2013> <00:00:00>  Acc.Num.Int.=  10.000
 <Jan01-2013> <00:00:00>  Block Length=  35
 <Jan01-2013> <00:00:00>  >>>> PTBAS
 <Jan01-2013> <00:00:00>  >>>> CYCLE
 <Jan01-2013> <00:00:00>    1
 <Jan01-2013> <00:00:00>    2  ErrMat   0.00249596  MaxEl -0.00249472
 <Jan01-2013> <00:00:00>    3  ErrMat   0.00062444  MaxEl  0.00061403
 <Jan01-2013> <00:00:00>    4  ErrMat   0.00001581  MaxEl  0.00001400
 <Jan01-2013> <00:00:00>    5  ErrMat   0.00000002  MaxEl -0.00000002
 <Jan01-2013> <00:00:00>    6  ErrMat   0.00000000  MaxEl  0.00000000
 <Jan01-2013> <00:00:00>  SCF converged
 <Jan01-2013> <00:00:00>    7  ErrMat   0.00000000  MaxEl  0.00000000
 <Jan01-2013> <00:00:00>   Solutions with partially occupied orbitals may not be
 <Jan01-2013> <00:00:00>   lowest in energy. You might consider lowering the
 <Jan01-2013> <00:00:00>   symmetry in the input and explicitly specifying integer
 <Jan01-2013> <00:00:00>   occupations. In that case always check that you obtain
 <Jan01-2013> <00:00:00>   an aufbau solution.
 <Jan01-2013> <00:00:00>  >>>> POPAN
 <Jan01-2013> <00:00:00>  >>>> DEBYE
 <Jan01-2013> <00:00:00>  NORMAL TERMINATION
 <Jan01-2013> <00:00:00>  END
 <Jan01-2013> <00:00:00>  DIRAC 2013.01  RunTime: Jan01-2013 00:00:00  Nodes: 1  Procs: 1
 <Jan01-2013> <00:00:00>  NORMAL TERMINATION
 <Jan01-2013> <00:00:00>  END
 <Jan01-2013> <00:00:00>  ADF 2013.01  RunTime: Jan01-2013 00:00:00  Nodes: 1  Procs: 1
 <Jan01-2013> <00:00:00>  Oxygen (TZP)
 <Jan01-2013> <00:00:00>  RunType   : CREATE
 <Jan01-2013> <00:00:00>  Net Charge: 0 (Nuclei minus Electrons)
 <Jan01-2013> <00:00:00>  Symmetry  : ATOM
  Coordinates
    Atom         X           Y           Z   (Angstrom)
    1.O         0.000000    0.000000    0.000000
 <Jan01-2013> <00:00:00>  >>>> CORORT
 <Jan01-2013> <00:00:00>  >>>> FITINT
 <Jan01-2013> <00:00:00>  >>>> CLSMAT
 <Jan01-2013> <00:00:00>  >>>> ORTHON
 <Jan01-2013> <00:00:00>  >>>> GENPT
 <Jan01-2013> <00:00:00>  Acc.Num.Int.=  10.000
 <Jan01-2013> <00:00:00>  Block Length=  58
 <Jan01-2013> <00:00:00>  >>>> PTBAS
 <Jan01-2013> <00:00:00>  >>>> CYCLE
 <Jan01-2013> <00:00:00>    1
 <Jan01-2013> <00:00:00>    2  ErrMat   8.20306701  MaxEl  5.21711031
 <Jan01-2013> <00:00:00>    3  ErrMat   3.42903042  MaxEl -2.40925268
 <Jan01-2013> <00:00:00>    4  ErrMat   2.80462787  MaxEl -1.89873382
 <Jan01-2013> <00:00:00>    5  ErrMat   1.89952944  MaxEl -1.26346350
 <Jan01-2013> <00:00:00>    6  ErrMat   0.19596939  MaxEl -0.10774442
 <Jan01-2013> <00:00:00>    7  ErrMat   0.05108113  MaxEl  0.02731641
 <Jan01-2013> <00:00:00>    8  ErrMat   0.00048208  MaxEl -0.00029995
 <Jan01-2013> <00:00:00>    9  ErrMat   0.00002637  MaxEl  0.00001247
 <Jan01-2013> <00:00:00>   10  ErrMat   0.00000048  MaxEl  0.00000030
 <Jan01-2013> <00:00:00>   11  ErrMat   0.00000000  MaxEl  0.00000000
 <Jan01-2013> <00:00:00>  SCF converged
 <Jan01-2013> <00:00:00>   12  ErrMat   0.00000000  MaxEl  0.00000000
 <Jan01-2013> <00:00:00>   Solutions with partially occupied orbitals may not be
 <Jan01-2013> <00:00:00>   lowest in energy. You might consider lowering the
 <Jan01-2013> <00:00:00>   symmetry in the input and explicitly specifying integer
 <Jan01-2013> <00:00:00>   occupations. In that case always check that you obtain
 <Jan01-2013> <00:00:00>   an aufbau solution.
 <Jan01-2013> <00:00:00>  >>>> POPAN
 <Jan01-2013> <00:00:00>  >>>> DEBYE
 <Jan01-2013> <00:00:00>  NORMAL TERMINATION
 <Jan01-2013> <00:00:00>  END
 <Jan01-2013> <00:00:00>  DIRAC 2013.01  RunTime: Jan01-2013 00:00:00  Nodes: 1  Procs: 1
 <Jan01-2013> <00:00:01>  NORMAL TERMINATION
 <Jan01-2013> <00:00:01>  END
 <Jan01-2013> <00:00:01>  ADF 2013.01  RunTime: Jan01-2013 00:00:01  Nodes: 1  Procs: 1
 <Jan01-2013> <00:00:01>  Mercury (TZP, all electron)
 <Jan01-2013> <00:00:01>  RunType   : CREATE
 <Jan01-2013> <00:00:01>  Net Charge: 0 (Nuclei minus Electrons)
 <Jan01-2013> <00:00:01>  Symmetry  : ATOM
  Coordinates
    Atom         X           Y           Z   (Angstrom)
    1.Hg        0.000000    0.000000    0.000000
 <Jan01-2013> <00:00:01>  >>>> CORORT
 <Jan01-2013> <00:00:01>  >>>> FITINT
 <Jan01-2013> <00:00:01>  >>>> CLSMAT
 <Jan01-2013> <00:00:01>  >>>> ORTHON
 <Jan01-2013> <00:00:01>  >>>> GENPT
 <Jan01-2013> <00:00:01>  Acc.Num.Int.=  10.000
 <Jan01-2013> <00:00:01>  Block Length= 123
 <Jan01-2013> <00:00:01>  >>>> PTBAS
 <Jan01-2013> <00:00:01>  >>>> CYCLE
 <Jan01-2013> <00:00:01>    1
 <Jan01-2013> <00:00:01>    2  ErrMat 433.13138663  MaxEl************
 <Jan01-2013> <00:00:01>    3  ErrMat 577.26634882  MaxEl************
 <Jan01-2013> <00:00:01>    4  ErrMat 461.55745835  MaxEl-88.44645804
 <Jan01-2013> <00:00:01>    5  ErrMat 342.34064648  MaxEl-54.27023076
 <Jan01-2013> <00:00:01>    6  ErrMat  35.32723963  MaxEl -6.79698764
 <Jan01-2013> <00:00:01>    7  ErrMat  30.94902949  MaxEl  6.79635552
 <Jan01-2013> <00:00:01>    8  ErrMat   2.50893373  MaxEl -0.51477608
 <Jan01-2013> <00:00:01>    9  ErrMat   3.15044944  MaxEl  0.48536786
 <Jan01-2013> <00:00:01>   10  ErrMat   0.25997222  MaxEl  0.06196610
 <Jan01-2013> <00:00:01>   11  ErrMat   0.03061729  MaxEl -0.00687397
 <Jan01-2013> <00:00:01>   12  ErrMat   0.00101074  MaxEl  0.00016562
 <Jan01-2013> <00:00:01>   13  ErrMat   0.00005685  MaxEl -0.00001225
 <Jan01-2013> <00:00:01>   14  ErrMat   0.00000911  MaxEl  0.00000174
 <Jan01-2013> <00:00:01>   15  ErrMat   0.00000020  MaxEl -0.00000005
 <Jan01-2013> <00:00:01>   16  ErrMat   0.00000001  MaxEl  0.00000000
 <Jan01-2013> <00:00:01>  SCF converged
 <Jan01-2013> <00:00:02>   17  ErrMat   0.00000000  MaxEl  0.00000000
 <Jan01-2013> <00:00:02>  >>>> POPAN
 <Jan01-2013> <00:00:02>  >>>> DEBYE
 <Jan01-2013> <00:00:02>  NORMAL TERMINATION
 <Jan01-2013> <00:00:02>  END
 <Jan01-2013> <00:00:02>  ADF 2013.01  RunTime: Jan01-2013 00:00:02  Nodes: 1  Procs: 2
 <Jan01-2013> <00:00:03>  Annealing ASCEC
 <Jan01-2013> <00:00:03>  RunType   : SINGLE POINT
 <Jan01-2013> <00:00:03>  Net Charge: 2 (Nuclei minus Electrons)
 <Jan01-2013> <00:00:03>  Symmetry  : NOSYM
 <Jan01-2013> <00:00:03>  >>>> FRAGM
  Coordinates
    Atom         X           Y           Z   (Angstrom)
    1.Hg        0.113478    1.257669   -0.190916
    2.O         1.074620   -0.739962   -0.882483
    3.H         0.665311   -1.587130   -0.691767
    4.H         1.411941   -0.742654   -1.781264
    5.Xx       -1.500000   -1.500000   -1.500000
    6.Xx        1.500000   -1.500000   -1.500000
    7.Xx        1.500000    1.500000   -1.500000
    8.Xx        1.500000    1.500000    1.500000
    9.Xx       -1.500000    1.500000   -1.500000
   10.Xx       -1.500000    1.500000    1.500000
   11.Xx       -1.500000   -1.500000    1.500000
   12.Xx        1.500000   -1.500000    1.500000
 <Jan01-2013> <00:00:03>  >>>> CORORT
 <Jan01-2013> <00:00:03>  >>>> FITINT
 <Jan01-2013> <00:00:03>  >>>> CLSMAT
 <Jan01-2013> <00:00:03>  >>>> ORTHON
 <Jan01-2013> <00:00:03>  >>>> GENPT
 <Jan01-2013> <00:00:03>  Acc.Num.Int.=   6.000
 <Jan01-2013> <00:00:03>  Block Length= 128
 <Jan01-2013> <00:00:03>  >>>> PTBAS
 <Jan01-2013> <00:00:04>  >>>> CYCLE
 <Jan01-2013> <00:00:04>    1
 <Jan01-2013> <00:00:04>    2  ErrMat   0.79993902  MaxEl  0.18950217
 <Jan01-2013> <00:00:05>    3  ErrMat   0.32283513  MaxEl  0.09996316
 <Jan01-2013> <00:00:05>    4  ErrMat   1.14167325  MaxEl  0.57526879
 <Jan01-2013> <00:00:05>    5  ErrMat   0.09443836  MaxEl  0.02045627
 <Jan01-2013> <00:00:06>    6  ErrMat   0.06387767  MaxEl -0.01255957
 <Jan01-2013> <00:00:06>    7  ErrMat   0.02074714  MaxEl -0.00350928
 <Jan01-2013> <00:00:06>    8  ErrMat   0.00544684  MaxEl  0.00214450
 <Jan01-2013> <00:00:08>    9  ErrMat   0.00086183  MaxEl  0.00019876
 <Jan01-2013> <00:00:09>   10  ErrMat   0.00057222  MaxEl  0.00021095
 <Jan01-2013> <00:00:09>   11  ErrMat   0.00006811  MaxEl  0.00002481
 <Jan01-2013> <00:00:09>   12  ErrMat   0.00001675  MaxEl  0.00000616
 <Jan01-2013> <00:00:10>   13  ErrMat   0.00000153  MaxEl  0.00000035
 <Jan01-2013> <00:00:10>  SCF converged
 <Jan01-2013> <00:00:10>   14  ErrMat   0.00000020  MaxEl -0.00000007
 <Jan01-2013> <00:00:10>  >>>> TOTEN
 <Jan01-2013> <00:00:13>  >>>> POPAN
 <Jan01-2013> <00:00:13>  >>>> DEBYE
 <Jan01-2013> <00:00:13>  >>>> AMETS
 <Jan01-2013> <00:00:13>   Bond Energy           0.42020749 a.u.
 <Jan01-2013> <00:00:13>   Bond Energy          11.43442751 eV
 <Jan01-2013> <00:00:13>   Bond Energy         263.68       kcal/mol
 <Jan01-2013> <00:00:13>  >>>> POPUL
 <Jan01-2013> <00:00:13>  NORMAL TERMINATION
 <Jan01-2013> <00:00:13>  END
