           4
 Configuration:    1  Energy(u.a.)=     -0.01695946
  Hg     0.601351   -1.228607   -0.117015
  O      0.321025   -0.917538    0.000000
  H      1.281025   -0.917297    0.000000
  H      0.000798   -0.012522    0.000000
           4
 Configuration:    2  Energy(u.a.)=     -0.20143273
  Hg     1.000405   -0.298498   -0.374362
  O      0.775249   -0.091354    0.495410
  H      1.285899   -0.736337    0.990217
  H      1.304534    0.697417    0.356496
           4
 Configuration:    3  Energy(u.a.)=     -2.35096581
  Hg     0.413325   -0.483684   -0.948529
  O      1.227253    0.358440    0.966250
  H      1.978890    0.159155    1.529213
  H      0.844091    1.198380    1.229475
           4
 Configuration:    5  Energy(u.a.)=     -2.35755166
  Hg     0.273462   -1.420365   -0.731400
  O      0.949784    0.098773    0.767498
  H      1.805452   -0.018041    1.186768
  H      0.257973   -0.194561    1.364953
           4
 Configuration:   11  Energy(u.a.)=     -2.37977671
  Hg     0.113478    1.257669   -0.190916
  O      1.074620   -0.739962   -0.882483
  H      0.665311   -1.587130   -0.691767
  H      1.411941   -0.742654   -1.781264
