

     ************************************************************************
     *************** Dalton - An Electronic Structure Program ***************
     ************************************************************************

    This is output from DALTON release Dalton2019.alpha (2019)
         ( Web site: http://daltonprogram.org )

   ----------------------------------------------------------------------------

    NOTE:
     
    Dalton is an experimental code for the evaluation of molecular
    properties using (MC)SCF, DFT, CI, and CC wave functions.
    The authors accept no responsibility for the performance of
    the code or for the correctness of the results.
     
    The code (in whole or part) is provided under a licence and
    is not to be reproduced for further distribution without
    the written permission of the authors or their representatives.
     
    See the home page "http://daltonprogram.org" for further information.
     
    If results obtained with this code are published,
    the appropriate citations would be both of:
     
       K. Aidas, C. Angeli, K. L. Bak, V. Bakken, R. Bast,
       L. Boman, O. Christiansen, R. Cimiraglia, S. Coriani,
       P. Dahle, E. K. Dalskov, U. Ekstroem,
       T. Enevoldsen, J. J. Eriksen, P. Ettenhuber, B. Fernandez,
       L. Ferrighi, H. Fliegl, L. Frediani, K. Hald, A. Halkier,
       C. Haettig, H. Heiberg, T. Helgaker, A. C. Hennum,
       H. Hettema, E. Hjertenaes, S. Hoest, I.-M. Hoeyvik,
       M. F. Iozzi, B. Jansik, H. J. Aa. Jensen, D. Jonsson,
       P. Joergensen, J. Kauczor, S. Kirpekar,
       T. Kjaergaard, W. Klopper, S. Knecht, R. Kobayashi, H. Koch,
       J. Kongsted, A. Krapp, K. Kristensen, A. Ligabue,
       O. B. Lutnaes, J. I. Melo, K. V. Mikkelsen, R. H. Myhre,
       C. Neiss, C. B. Nielsen, P. Norman, J. Olsen,
       J. M. H. Olsen, A. Osted, M. J. Packer, F. Pawlowski,
       T. B. Pedersen, P. F. Provasi, S. Reine, Z. Rinkevicius,
       T. A. Ruden, K. Ruud, V. Rybkin, P. Salek, C. C. M. Samson,
       A. Sanchez de Meras, T. Saue, S. P. A. Sauer,
       B. Schimmelpfennig, K. Sneskov, A. H. Steindal,
       K. O. Sylvester-Hvid, P. R. Taylor, A. M. Teale,
       E. I. Tellgren, D. P. Tew, A. J. Thorvaldsen, L. Thoegersen,
       O. Vahtras, M. A. Watson, D. J. D. Wilson, M. Ziolkowski
       and H. Agren,
       "The Dalton quantum chemistry program system",
       WIREs Comput. Mol. Sci. 2014, 4:269–284 (doi: 10.1002/wcms.1172)
     
    and
     
       Dalton, a molecular electronic structure program,
       Release Dalton2019.alpha (2019), see http://daltonprogram.org
   ----------------------------------------------------------------------------

    Authors in alphabetical order (major contribution(s) in parenthesis):

  Kestutis Aidas,           Vilnius University,           Lithuania   (QM/MM)
  Celestino Angeli,         University of Ferrara,        Italy       (NEVPT2)
  Keld L. Bak,              UNI-C,                        Denmark     (AOSOPPA, non-adiabatic coupling, magnetic properties)
  Vebjoern Bakken,          University of Oslo,           Norway      (DALTON; geometry optimizer, symmetry detection)
  Radovan Bast,             UiT The Arctic U. of Norway,  Norway      (DALTON installation and execution frameworks)
  Pablo Baudin,             University of Valencia,       Spain       (Cholesky excitation energies)
  Linus Boman,              NTNU,                         Norway      (Cholesky decomposition and subsystems)
  Ove Christiansen,         Aarhus University,            Denmark     (CC module)
  Renzo Cimiraglia,         University of Ferrara,        Italy       (NEVPT2)
  Sonia Coriani,            Technical Univ. of Denmark,   Denmark     (CC module, MCD in RESPONS)
  Janusz Cukras,            University of Trieste,        Italy       (MChD in RESPONS)
  Paal Dahle,               University of Oslo,           Norway      (Parallelization)
  Erik K. Dalskov,          UNI-C,                        Denmark     (SOPPA)
  Thomas Enevoldsen,        Univ. of Southern Denmark,    Denmark     (SOPPA)
  Janus J. Eriksen,         Aarhus University,            Denmark     (Polarizable embedding model, TDA)
  Rasmus Faber,             University of Copenhagen,     Denmark     (Vib.avg. NMR with SOPPA, parallel AO-SOPPA)
  Tobias Fahleson,          KTH Stockholm,                Sweden      (Damped cubic response)
  Berta Fernandez,          U. of Santiago de Compostela, Spain       (doublet spin, ESR in RESPONS)
  Lara Ferrighi,            Aarhus University,            Denmark     (PCM Cubic response)
  Heike Fliegl,             University of Oslo,           Norway      (CCSD(R12))
  Luca Frediani,            UiT The Arctic U. of Norway,  Norway      (PCM)
  Bin Gao,                  UiT The Arctic U. of Norway,  Norway      (Gen1Int library)
  Christof Haettig,         Ruhr-University Bochum,       Germany     (CC module)
  Kasper Hald,              Aarhus University,            Denmark     (CC module)
  Asger Halkier,            Aarhus University,            Denmark     (CC module)
  Frederik Beyer Hansen,    University of Copenhagen,     Denmark     (Parallel AO-SOPPA)
  Erik D. Hedegaard,        Univ. of Southern Denmark,    Denmark     (Polarizable embedding model, QM/MM)
  Hanne Heiberg,            University of Oslo,           Norway      (geometry analysis, selected one-electron integrals)
  Trygve Helgaker,          University of Oslo,           Norway      (DALTON; ABACUS, ERI, DFT modules, London, and much more)
  Alf Christian Hennum,     University of Oslo,           Norway      (Parity violation)
  Hinne Hettema,            University of Auckland,       New Zealand (quadratic response in RESPONS; SIRIUS supersymmetry)
  Eirik Hjertenaes,         NTNU,                         Norway      (Cholesky decomposition)
  Pi A. B. Haase,           University of Copenhagen,     Denmark     (Triplet AO-SOPPA)
  Maria Francesca Iozzi,    University of Oslo,           Norway      (RPA)
  Christoph Jacob           TU Braunschweig               Germany     (Frozen density embedding model)
  Brano Jansik              Technical Univ. of Ostrava    Czech Rep.  (DFT cubic response)
  Hans Joergen Aa. Jensen,  Univ. of Southern Denmark,    Denmark     (DALTON; SIRIUS, RESPONS, ABACUS modules, London, and much more)
  Dan Jonsson,              UiT The Arctic U. of Norway,  Norway      (cubic response in RESPONS module)
  Poul Joergensen,          Aarhus University,            Denmark     (RESPONS, ABACUS, and CC modules)
  Maciej Kaminski,          University of Warsaw,         Poland      (CPPh in RESPONS)
  Joanna Kauczor,           Linkoeping University,        Sweden      (Complex polarization propagator (CPP) module)
  Sheela Kirpekar,          Univ. of Southern Denmark,    Denmark     (Mass-velocity & Darwin integrals)
  Wim Klopper,              KIT Karlsruhe,                Germany     (R12 code in CC, SIRIUS, and ABACUS modules)
  Stefan Knecht,            ETH Zurich,                   Switzerland (Parallel CI and MCSCF)
  Rika Kobayashi,           Australian National Univ.,    Australia   (DIIS in CC, London in MCSCF)
  Henrik Koch,              NTNU,                         Norway      (CC module, Cholesky decomposition)
  Jacob Kongsted,           Univ. of Southern Denmark,    Denmark     (Polarizable embedding model, QM/MM)
  Andrea Ligabue,           University of Modena,         Italy       (CTOCD, AOSOPPA)
  Nanna H. List             Univ. of Southern Denmark,    Denmark     (Polarizable embedding model)
  Ola B. Lutnaes,           University of Oslo,           Norway      (DFT Hessian)
  Juan I. Melo,             University of Buenos Aires,   Argentina   (LRESC, Relativistic Effects on NMR Shieldings)
  Kurt V. Mikkelsen,        University of Copenhagen,     Denmark     (MC-SCRF and QM/MM)
  Rolf H. Myhre,            NTNU,                         Norway      (Subsystems and CC3)
  Christian Neiss,          Univ. Erlangen-Nuernberg,     Germany     (CCSD(R12))
  Christian B. Nielsen,     University of Copenhagen,     Denmark     (QM/MM)
  Patrick Norman,           KTH Stockholm,                Sweden      (Cubic response and complex frequency response in RESPONS)
  Jeppe Olsen,              Aarhus University,            Denmark     (SIRIUS CI/density modules)
  Jogvan Magnus H. Olsen,   Univ. of Southern Denmark,    Denmark     (Polarizable embedding model, QM/MM)
  Anders Osted,             Copenhagen University,        Denmark     (QM/MM)
  Martin J. Packer,         University of Sheffield,      UK          (SOPPA)
  Filip Pawlowski,          Kazimierz Wielki University,  Poland      (CC3)
  Morten N. Pedersen,       Univ. of Southern Denmark,    Denmark     (Polarizable embedding model)
  Thomas B. Pedersen,       University of Oslo,           Norway      (Cholesky decomposition)
  Patricio F. Provasi,      University of Northeastern,   Argentina   (Analysis of coupling constants in localized orbitals)
  Zilvinas Rinkevicius,     KTH Stockholm,                Sweden      (open-shell DFT, ESR)
  Elias Rudberg,            KTH Stockholm,                Sweden      (DFT grid and basis info)
  Torgeir A. Ruden,         University of Oslo,           Norway      (Numerical derivatives in ABACUS)
  Kenneth Ruud,             UiT The Arctic U. of Norway,  Norway      (DALTON; ABACUS magnetic properties and much more)
  Pawel Salek,              KTH Stockholm,                Sweden      (DALTON; DFT code)
  Claire C. M. Samson       University of Karlsruhe       Germany     (Boys localization, r12 integrals in ERI)
  Alfredo Sanchez de Meras, University of Valencia,       Spain       (CC module, Cholesky decomposition)
  Trond Saue,               Paul Sabatier University,     France      (direct Fock matrix construction)
  Stephan P. A. Sauer,      University of Copenhagen,     Denmark     (SOPPA(CCSD), SOPPA prop., AOSOPPA, vibrational g-factors)
  Andre S. P. Gomes,        CNRS/Universite de Lille,     France      (Frozen density embedding model)
  Bernd Schimmelpfennig,    Forschungszentrum Karlsruhe,  Germany     (AMFI module)
  Kristian Sneskov,         Aarhus University,            Denmark     (Polarizable embedding model, QM/MM)
  Arnfinn H. Steindal,      UiT The Arctic U. of Norway,  Norway      (parallel QM/MM, Polarizable embedding model)
  Casper Steinmann,         Univ. of Southern Denmark,    Denmark     (QFIT, Polarizable embedding model)
  K. O. Sylvester-Hvid,     University of Copenhagen,     Denmark     (MC-SCRF)
  Peter R. Taylor,          VLSCI/Univ. of Melbourne,     Australia   (Symmetry handling ABACUS, integral transformation)
  Andrew M. Teale,          University of Nottingham,     England     (DFT-AC, DFT-D)
  David P. Tew,             University of Bristol,        England     (CCSD(R12))
  Olav Vahtras,             KTH Stockholm,                Sweden      (triplet response, spin-orbit, ESR, TDDFT, open-shell DFT)
  Lucas Visscher,           Vrije Universiteit Amsterdam, Netherlands (Frozen density embedding model)
  David J. Wilson,          La Trobe University,          Australia   (DFT Hessian and DFT magnetizabilities)
  Hans Agren,               KTH Stockholm,                Sweden      (SIRIUS module, RESPONS, MC-SCRF solvation model)
 --------------------------------------------------------------------------------

     Date and time (Linux)  : Wed Sep 16 19:11:31 2020
     Host name              : parca                                   

 * Work memory size             :    64000000 =  488.28 megabytes.

 * Directories for basis set searches:
   1) /home/danian/hg2w/ASCECV3/examples/dalton
   2) /home/danian/repos/gesc/gescv1/build/basis


Compilation information
-----------------------

 Who compiled             | danian
 Host                     | parca
 System                   | Linux-5.3.0-46-generic
 CMake generator          | Unix Makefiles
 Processor                | x86_64
 64-bit integers          | OFF
 MPI                      | OFF
 Fortran compiler         | /usr/bin/gfortran
 Fortran compiler version | GNU Fortran (Ubuntu 7.5.0-3ubuntu1~18.04) 7.5.0
 C compiler               | /usr/bin/gcc
 C compiler version       | gcc (Ubuntu 7.5.0-3ubuntu1~18.04) 7.5.0
 C++ compiler             | /usr/bin/g++
 C++ compiler version     | g++ (Ubuntu 7.5.0-3ubuntu1~18.04) 7.5.0
 BLAS                     | /usr/lib/x86_64-linux-gnu/libf77blas.so;/usr/lib/x
                          | 86_64-linux-gnu/libcblas.so;/usr/lib/x86_64-linux-
                          | gnu/libatlas.so
 LAPACK                   | /usr/lib/x86_64-linux-gnu/libatlas.so;/usr/lib/x86
                          | _64-linux-gnu/atlas/liblapack.so
 Static linking           | OFF
 Last Git revision        | e43865b0d2dba3aa4c931c9f3ee9ae1001abb0bc
 Git branch               | gescV1
 Configuration time       | 2020-07-24 01:45:38.700777


   Content of the .dal input file
 ----------------------------------

**DALTON INPUT
.RUN WAVE FUNCTIONS
**WAVE FUNCTIONS
.DFT
B3LYP
*SCF INPUT
.THRESH
 1.0D-7
**END OF DALTON INPUT


   Content of the .mol file
 ----------------------------

ATOMBASIS
Configuration
Coordenadas
Angstrom Atomtypes= 6 Generators=0
Charge=  1 Atoms=1 Basis=STO-3G
H                0.530848              -3.257033               0.369740
Charge=  8 Atoms=1 Basis=STO-2G
O               -0.240444              -2.704526               0.514219
Charge=  1 Atoms=1 Basis=STO-3G
H               -0.959750              -3.337468               0.569100
Charge=  1 Atoms=1 Basis=STO-3G
H               -1.029387               0.761054              -0.734029
Charge=  8 Atoms=1 Basis=STO-2G
O               -1.423560               1.580132              -0.426186
Charge=  1 Atoms=1 Basis=STO-3G
H               -0.856827               1.838531               0.303932


       *******************************************************************
       *********** Output from DALTON general input processing ***********
       *******************************************************************

 --------------------------------------------------------------------------------
   Overall default print level:    0
   Print level for DALTON.STAT:    1

    HERMIT 1- and 2-electron integral sections will be executed
    "Old" integral transformation used (limited to max 255 basis functions)
    Wave function sections will be executed (SIRIUS module)
 --------------------------------------------------------------------------------


   ****************************************************************************
   *************** Output of molecule and basis set information ***************
   ****************************************************************************


    The two title cards from your ".mol" input:
    ------------------------------------------------------------------------
 1: Configuration                                                           
 2: Coordenadas                                                             
    ------------------------------------------------------------------------

  Coordinates are entered in Angstrom and converted to atomic units.
          - Conversion factor : 1 bohr = 0.52917721 A

  Atomic type no.    1
  --------------------
  Nuclear charge:   1.00000
  Number of symmetry independent centers:    1
  Number of basis sets to read;    2
  The basis set is "STO-3G" from the basis set library.
  Basis set file used for this atomic type with Z =   1 :
     "/home/danian/repos/gesc/gescv1/build/basis/STO-3G"

  Atomic type no.    2
  --------------------
  Nuclear charge:   8.00000
  Number of symmetry independent centers:    1
  Number of basis sets to read;    2
  The basis set is "STO-2G" from the basis set library.
  Basis set file used for this atomic type with Z =   8 :
     "/home/danian/repos/gesc/gescv1/build/basis/STO-2G"

  Atomic type no.    3
  --------------------
  Nuclear charge:   1.00000
  Number of symmetry independent centers:    1
  Number of basis sets to read;    2
  The basis set is "STO-3G" from the basis set library.
  Basis set file used for this atomic type with Z =   1 :
     "/home/danian/repos/gesc/gescv1/build/basis/STO-3G"

  Atomic type no.    4
  --------------------
  Nuclear charge:   1.00000
  Number of symmetry independent centers:    1
  Number of basis sets to read;    2
  The basis set is "STO-3G" from the basis set library.
  Basis set file used for this atomic type with Z =   1 :
     "/home/danian/repos/gesc/gescv1/build/basis/STO-3G"

  Atomic type no.    5
  --------------------
  Nuclear charge:   8.00000
  Number of symmetry independent centers:    1
  Number of basis sets to read;    2
  The basis set is "STO-2G" from the basis set library.
  Basis set file used for this atomic type with Z =   8 :
     "/home/danian/repos/gesc/gescv1/build/basis/STO-2G"

  Atomic type no.    6
  --------------------
  Nuclear charge:   1.00000
  Number of symmetry independent centers:    1
  Number of basis sets to read;    2
  The basis set is "STO-3G" from the basis set library.
  Basis set file used for this atomic type with Z =   1 :
     "/home/danian/repos/gesc/gescv1/build/basis/STO-3G"


                         SYMGRP: Point group information
                         -------------------------------

@    Point group: C1 


                                 Isotopic Masses
                                 ---------------

                           H           1.007825
                           O          15.994915
                           H           1.007825
                           H           1.007825
                           O          15.994915
                           H           1.007825

                       Total mass:    36.021130 amu
                       Natural abundance:  99.461 %

 Center-of-mass coordinates (a.u.):   -1.518702   -1.154720    0.100768


  Atoms and basis sets
  --------------------

  Number of atom types :    6
  Total number of atoms:    6

  label    atoms   charge   prim   cont     basis
  ----------------------------------------------------------------------
  H           1    1.0000     3     1      [3s|1s]                                            
  O           1    8.0000    10     5      [4s2p|2s1p]                                        
  H           1    1.0000     3     1      [3s|1s]                                            
  H           1    1.0000     3     1      [3s|1s]                                            
  O           1    8.0000    10     5      [4s2p|2s1p]                                        
  H           1    1.0000     3     1      [3s|1s]                                            
  ----------------------------------------------------------------------
  total:      6   20.0000    32    14
  ----------------------------------------------------------------------

  Threshold for neglecting AO integrals:  1.00D-12


  Cartesian Coordinates (a.u.)
  ----------------------------

  Total number of coordinates:   18
  H       :     1  x   1.0031573340    2  y  -6.1549003501    3  z   0.6987073375
  O       :     4  x  -0.4543733084    5  y  -5.1108134379    6  z   0.9717330783
  H       :     7  x  -1.8136646485    8  y  -6.3069004709    9  z   1.0754431377
  H       :    10  x  -1.9452595066   11  y   1.4381836263   12  z  -1.3871137778
  O       :    13  x  -2.6901385225   14  y   2.9860167213   15  z  -0.8053748183
  H       :    16  x  -1.6191683665   17  y   3.4743200623   18  z   0.5743482406


   Interatomic separations (in Angstrom):
   --------------------------------------

            H           O           H           H           O           H     
            ------      ------      ------      ------      ------      ------
 H     :    0.000000
 O     :    0.959703    0.000000
 H     :    1.506020    0.959702    0.000000
 H     :    4.449456    3.767068    4.301265    0.000000
 O     :    5.277440    4.543393    5.038701    0.959702    0.000000
 H     :    5.281548    4.589501    5.183809    1.506020    0.959702    0.000000


  Max    interatomic separation is    5.2815 Angstrom (    9.9807 Bohr)
  between atoms    6 and    1, "H     " and "H     ".

  Min HX interatomic separation is    0.9597 Angstrom (    1.8136 Bohr)

  Min YX interatomic separation is    4.5434 Angstrom (    8.5858 Bohr)


  Bond distances (Angstrom):
  --------------------------

                  atom 1     atom 2       distance
                  ------     ------       --------
  bond distance:  O          H            0.959703
  bond distance:  H          O            0.959702
  bond distance:  O          H            0.959702
  bond distance:  H          O            0.959702


  Bond angles (degrees):
  ----------------------

                  atom 1     atom 2     atom 3         angle
                  ------     ------     ------         -----
  bond angle:     H          O          H            103.373
  bond angle:     H          O          H            103.373




 Principal moments of inertia (u*A**2) and principal axes
 --------------------------------------------------------

   IA       2.332743         -0.249572    0.948088   -0.197085
   IB     189.071439          0.911407    0.298745    0.282999
   IC     189.825222         -0.327187    0.108995    0.938653


 Rotational constants
 --------------------

               A                   B                   C

         216645.8595           2672.9527           2662.3385 MHz
            7.226528            0.089160            0.088806 cm-1


@  Nuclear repulsion energy :   29.934452932158 Hartree


                     .---------------------------------------.
                     | Starting in Integral Section (HERMIT) |
                     `---------------------------------------'



 ***************************************************************************************
 ****************** Output from **INTEGRALS input processing (HERMIT) ******************
 ***************************************************************************************


 - Using defaults, no **INTEGRALS input found

 Default print level:        1

 Calculation of one- and two-electron Hamiltonian integrals.

 Center of mass  (bohr):     -1.518702175836     -1.154719834067      0.100768465697
 Operator center (bohr):      0.000000000000      0.000000000000      0.000000000000
 Gauge origin    (bohr):      0.000000000000      0.000000000000      0.000000000000
 Dipole origin   (bohr):      0.000000000000      0.000000000000      0.000000000000


     ************************************************************************
     ************************** Output from HERINT **************************
     ************************************************************************



                      Nuclear contribution to dipole moments
                      --------------------------------------

                 au               Debye          C m (/(10**-30)

      x    -29.53102983       -75.06038605      -250.37449756
      y    -24.54767087       -62.39395178      -208.12382073
      z      2.29225102         5.82632056        19.43451346



 Threshold for neglecting two-electron integrals:  1.00D-12
 HERMIT - Number of two-electron integrals written:        3989 ( 71.7% )
 HERMIT - Megabytes written:                              0.048

  Total CPU  time used in HERMIT:   0.01 seconds
  Total wall time used in HERMIT:   0.01 seconds


                        .----------------------------------.
                        | End of Integral Section (HERMIT) |
                        `----------------------------------'



                   .--------------------------------------------.
                   | Starting in Wave Function Section (SIRIUS) |
                   `--------------------------------------------'


 *** Output from Huckel module :

     Using EWMO model:          T
     Using EHT  model:          F
     Number of Huckel orbitals each symmetry:   14

 EWMO - Energy Weighted Maximum Overlap - is a Huckel type method,
        which normally is better than Extended Huckel Theory.
 Reference: Linderberg and Ohrn, Propagators in Quantum Chemistry (Wiley, 1973)

 Huckel EWMO eigenvalues for symmetry :  1
          -20.684950     -20.684908      -1.614272      -1.607741      -0.776727
           -0.774995      -0.694794      -0.685624      -0.616499      -0.615798
           -0.235972      -0.229369      -0.169129      -0.169022

 **********************************************************************
 *SIRIUS* a direct, restricted step, second order MCSCF program       *
 **********************************************************************

 
     Date and time (Linux)  : Wed Sep 16 19:11:31 2020
     Host name              : parca                                   

 Title lines from ".mol" input file:
     Configuration                                                           
     Coordenadas                                                             

 Print level on unit LUPRI =   2 is   0
 Print level on unit LUW4  =   2 is   5

@    Restricted, closed shell Kohn-Sham DFT calculation.

 Initial molecular orbitals are obtained according to
 ".MOSTART EWMO  " input option

     Wave function specification
     ============================
@    Wave function type        --- KS-DFT ---
@    Number of closed shell electrons          20
@    Number of electrons in active shells       0
@    Total charge of the molecule               0

@    Spin multiplicity and 2 M_S                1         0
@    Total number of symmetries                 1 (point group: C1 )
@    Reference state symmetry                   1 (irrep name : A  )
 
     This is a DFT calculation of type: B3LYP
 Weighted mixed functional:
               HF exchange:    0.20000
                       VWN:    0.19000
                       LYP:    0.81000
                     Becke:    0.72000
                    Slater:    0.80000

     Orbital specifications
     ======================
@    Abelian symmetry species          All |    1
@                                          |  A  
                                       --- |  ---
@    Occupied SCF orbitals              10 |   10
@    Secondary orbitals                  4 |    4
@    Total number of orbitals           14 |   14
@    Number of basis functions          14 |   14

     Optimization information
     ========================
@    Number of configurations                 1
@    Number of orbital rotations             40
     ------------------------------------------
@    Total number of variables               41

     Maximum number of Fock   iterations      0
     Maximum number of DIIS   iterations     60
     Maximum number of QC-SCF iterations     60
     Threshold for SCF convergence     1.00D-07
 
     This is a DFT calculation of type: B3LYP
 Weighted mixed functional:
               HF exchange:    0.20000
                       VWN:    0.19000
                       LYP:    0.81000
                     Becke:    0.72000
                    Slater:    0.80000


 ***********************************************
 ***** DIIS acceleration of SCF iterations *****
 ***********************************************

 C1-DIIS algorithm; max error vectors =    8

 Iter      Total energy        Error norm    Delta(E)  DIIS dim.
 -----------------------------------------------------------------------------
      K-S energy, electrons, error :    -15.088297367672  19.9999973338   -2.67D-06
@  1    -145.966526105        1.64575D+00   -1.46D+02    1
      Virial theorem: -V/T =      2.012995
@    MULPOP   H       0.21; O      -0.42; H       0.21; H       0.21; O      -0.42; H       0.21; 
   1  Level shift: doubly occupied orbital energies shifted by -2.00D-01
 -----------------------------------------------------------------------------
      K-S energy, electrons, error :    -14.936255798849  19.9999957938   -4.21D-06
@  2    -146.107566858        3.04524D-01   -1.41D-01    2
      Virial theorem: -V/T =      2.019954
@    MULPOP   H       0.06; O      -0.12; H       0.06; H       0.07; O      -0.13; H       0.06; 
   2  Level shift: doubly occupied orbital energies shifted by -5.00D-02
 -----------------------------------------------------------------------------
      K-S energy, electrons, error :    -15.004020891262  19.9999963366   -3.66D-06
@  3    -146.113433419        1.10674D-01   -5.87D-03    3
      Virial theorem: -V/T =      2.015950
@    MULPOP   H       0.13; O      -0.27; H       0.14; H       0.14; O      -0.27; H       0.13; 
   3  Level shift: doubly occupied orbital energies shifted by -2.50D-02
 -----------------------------------------------------------------------------
      K-S energy, electrons, error :    -14.983313479871  19.9999961413   -3.86D-06
@  4    -146.114438382        9.16209D-03   -1.00D-03    4
      Virial theorem: -V/T =      2.016893
@    MULPOP   H       0.11; O      -0.22; H       0.11; H       0.11; O      -0.22; H       0.11; 
 -----------------------------------------------------------------------------
      K-S energy, electrons, error :    -14.984802593342  19.9999961539   -3.85D-06
@  5    -146.114444959        3.06723D-04   -6.58D-06    5
      Virial theorem: -V/T =      2.016817
@    MULPOP   H       0.11; O      -0.23; H       0.11; H       0.12; O      -0.23; H       0.11; 
 -----------------------------------------------------------------------------
      K-S energy, electrons, error :    -14.984832334825  19.9999961545   -3.85D-06
@  6    -146.114444967        1.47740D-04   -7.89D-09    6
      Virial theorem: -V/T =      2.016814
@    MULPOP   H       0.11; O      -0.23; H       0.11; H       0.12; O      -0.23; H       0.11; 
 -----------------------------------------------------------------------------
      K-S energy, electrons, error :    -14.984833776895  19.9999961543   -3.85D-06
@  7    -146.114444969        4.90028D-06   -1.77D-09    7
      Virial theorem: -V/T =      2.016814
@    MULPOP   H       0.11; O      -0.23; H       0.11; H       0.12; O      -0.23; H       0.11; 
 -----------------------------------------------------------------------------
      K-S energy, electrons, error :    -14.984833980212  19.9999961543   -3.85D-06
@  8    -146.114444969        4.67251D-07   -2.67D-12    8
      Virial theorem: -V/T =      2.016814
@    MULPOP   H       0.11; O      -0.23; H       0.11; H       0.12; O      -0.23; H       0.11; 
 -----------------------------------------------------------------------------
      K-S energy, electrons, error :    -14.984833997864  19.9999961543   -3.85D-06
@  9    -146.114444969        2.32852D-08    3.41D-13    8

@ *** DIIS converged in   9 iterations !
@     Converged SCF energy, gradient:   -146.114444969039    2.33D-08
    - total time used in SIRFCK :              0.00 seconds


 *** SCF orbital energy analysis ***

 Number of electrons :   20
 Orbital occupations :   10

 Sym       Kohn-Sham orbital energies

1 A     -18.19963233   -18.18750777    -0.91792341    -0.90582970    -0.43244841
         -0.42047307    -0.21206478    -0.19972340    -0.11282923    -0.10079616
          0.37679474     0.38924635     0.50823738     0.52035614

    E(LUMO) :     0.37679474 au (symmetry 1)
  - E(HOMO) :    -0.10079616 au (symmetry 1)
  ------------------------------------------
    gap     :     0.47759091 au

 --- Writing SIRIFC interface file

 CPU and wall time for SCF :       2.501       2.535


                       .-----------------------------------.
                       | --- Final results from SIRIUS --- |
                       `-----------------------------------'


@    Spin multiplicity:           1
@    Spatial symmetry:            1 ( irrep  A   in C1  )
@    Total charge of molecule:    0

@    Final DFT energy:           -146.114444969039                 
@    Nuclear repulsion:            29.934452932158
@    Electronic energy:          -176.048897901198

@    Final gradient norm:           0.000000023285

 
     Date and time (Linux)  : Wed Sep 16 19:11:34 2020
     Host name              : parca                                   

File label for MO orbitals:  16Sep20   FOCKDIIS

 (Only coefficients > 0.0100 are printed.)

 Molecular orbitals for symmetry species 1  (A  )
 ------------------------------------------------

    Orbital         1        2        3        4        5        6        7
   1 H   :1s     0.0141  -0.0000  -0.1937  -0.0012   0.4654  -0.0017   0.2950
   2 O   :1s    -0.9850   0.0001   0.2587   0.0015   0.0002   0.0001   0.1556
   3 O   :1s    -0.0593   0.0000  -0.7779  -0.0045  -0.0006  -0.0005  -0.6407
   4 O   :2px   -0.0004   0.0000  -0.0082  -0.0001   0.5791  -0.0025   0.0318
   5 O   :2py    0.0081  -0.0000   0.1817   0.0012   0.0315  -0.0019  -0.7267
   6 O   :2pz    0.0006   0.0000   0.0140   0.0000  -0.0775   0.0009  -0.0533
   7 H   :1s     0.0141  -0.0000  -0.1933  -0.0012  -0.4651   0.0026   0.2946
   8 H   :1s     0.0000   0.0141  -0.0016   0.1929  -0.0023  -0.4644  -0.0091
   9 O   :1s    -0.0001  -0.9850   0.0014  -0.2587  -0.0001   0.0005  -0.0046
  10 O   :1s    -0.0000  -0.0593  -0.0042   0.7779   0.0002  -0.0020   0.0191
  11 O   :2px   -0.0000  -0.0066  -0.0008   0.1476   0.0003   0.0670  -0.0154
  12 O   :2py    0.0000   0.0038   0.0005  -0.0855   0.0018   0.4185   0.0071
  13 O   :2pz    0.0000  -0.0029  -0.0004   0.0646   0.0017   0.4034  -0.0083
  14 H   :1s    -0.0000   0.0141  -0.0011   0.1940   0.0020   0.4660  -0.0093

    Orbital         8        9       10       11       12       13       14
   1 H   :1s    -0.0086  -0.0004   0.0000  -0.7704  -0.0825   0.8250  -0.0036
   2 O   :1s    -0.0045  -0.0003  -0.0000  -0.1625  -0.0170  -0.0003  -0.0010
   3 O   :1s     0.0184   0.0012  -0.0000   0.8524   0.0898   0.0014   0.0061
   4 O   :2px   -0.0007   0.1359   0.0000   0.0353   0.0045  -0.9887  -0.0027
   5 O   :2py    0.0195  -0.0676   0.0000  -0.7703  -0.0843  -0.0542  -0.0083
   6 O   :2pz    0.0033   0.9884   0.0000  -0.0585  -0.0052   0.1322   0.0009
   7 H   :1s    -0.0084  -0.0004   0.0000  -0.7683  -0.0820  -0.8273  -0.0094
   8 H   :1s    -0.2948  -0.0003   0.0001  -0.0873   0.7644  -0.0024   0.8308
   9 O   :1s    -0.1556   0.0001  -0.0002  -0.0172   0.1625   0.0001   0.0010
  10 O   :1s     0.6407  -0.0004   0.0006   0.0904  -0.8523  -0.0004  -0.0052
  11 O   :2px   -0.5885   0.0016  -0.5790   0.0662  -0.6254  -0.0006   0.1112
  12 O   :2py    0.3449  -0.0019  -0.5157  -0.0447   0.3594  -0.0022   0.7165
  13 O   :2pz   -0.2582  -0.0001   0.6315   0.0242  -0.2795  -0.0024   0.6870
  14 H   :1s    -0.2948   0.0001  -0.0000  -0.0760   0.7745   0.0030  -0.8214

  Total CPU  time used in SIRIUS :   2.50 seconds
  Total wall time used in SIRIUS :   2.54 seconds

 
     Date and time (Linux)  : Wed Sep 16 19:11:34 2020
     Host name              : parca                                   


                     .---------------------------------------.
                     | End of Wave Function Section (SIRIUS) |
                     `---------------------------------------'

  Total CPU  time used in DALTON:   2.52 seconds
  Total wall time used in DALTON:   2.56 seconds

 
     Date and time (Linux)  : Wed Sep 16 19:11:34 2020
     Host name              : parca                                   
