 argument  1 = anneal.nw



============================== echo of input deck ==============================
 echo

 start anneal

 scratch_dir /home/scratch/nwchem/danian

 memory stack 500 mb heap 100 mb global 1000 mb

 title "Annealing"
 charge            0

 geometry units angstroms print xyz autosym
 H    -5.0538081476266483E-002  0.66640535108553767       0.42079125448479759
 O   -0.39459922833101546       0.32684142035696467        1.2498552414979589
 H    0.39661997057146325        8.4056306766909339E-002   1.7357115971177852
 H    -3.5076470905545496        1.1014897290671595       -2.3390530375870253
 O    -2.6182737524829625        1.2735802288418276       -2.0221480742246474
 H    -2.7525569457167967        1.9160598442518921       -1.3219932355021964
 Xx    -3.5000000000000000       -3.5000000000000000       -3.5000000000000000
 Xx     3.5000000000000000       -3.5000000000000000       -3.5000000000000000
 Xx     3.5000000000000000        3.5000000000000000       -3.5000000000000000
 Xx     3.5000000000000000        3.5000000000000000        3.5000000000000000
 Xx    -3.5000000000000000        3.5000000000000000       -3.5000000000000000
 Xx    -3.5000000000000000        3.5000000000000000        3.5000000000000000
 Xx    -3.5000000000000000       -3.5000000000000000        3.5000000000000000
 Xx     3.5000000000000000       -3.5000000000000000        3.5000000000000000
 end

 basis
 O  library sto-3g
 H  library sto-3g
 end

 scf
 SINGLET
 end

 task scf energy
================================================================================


                                         
                                         


              Northwest Computational Chemistry Package (NWChem) 6.3
              ------------------------------------------------------


                    Environmental Molecular Sciences Laboratory
                       Pacific Northwest National Laboratory
                                Richland, WA 99352

                              Copyright (c) 1994-2012
                       Pacific Northwest National Laboratory
                            Battelle Memorial Institute

             NWChem is an open-source computational chemistry package
                        distributed under the terms of the
                      Educational Community License (ECL) 2.0
             A copy of the license is included with this distribution
                              in the LICENSE.TXT file

                                  ACKNOWLEDGMENT
                                  --------------

            This software and its documentation were developed at the
            EMSL at Pacific Northwest National Laboratory, a multiprogram
            national laboratory, operated for the U.S. Department of Energy
            by Battelle under Contract Number DE-AC05-76RL01830. Support
            for this work was provided by the Department of Energy Office
            of Biological and Environmental Research, Office of Basic
            Energy Sciences, and the Office of Advanced Scientific Computing.


           Job information
           ---------------

    hostname        = 140028
    program         = nwchem
    date            = Sat Jan 17 15:24:10 2015

    compiled        = Sun_Dec_22_04:02:59_2013
    source          = /build/buildd/nwchem-6.3+r1
    nwchem branch   = 6.3
    nwchem revision = 24277
    ga revision     = 10379
    input           = anneal.nw
    prefix          = anneal.
    data base       = ./anneal.db
    status          = startup
    nproc           =        8
    time left       =     -1s



           Memory information
           ------------------

    heap     =   13107201 doubles =    100.0 Mbytes
    stack    =   65536001 doubles =    500.0 Mbytes
    global   =  131072000 doubles =   1000.0 Mbytes (distinct from heap & stack)
    total    =  209715202 doubles =   1600.0 Mbytes
    verify   = yes
    hardfail = no 


           Directory information
           ---------------------

  0 permanent = .
  0 scratch   = /home/scratch/nwchem/danian




                                NWChem Input Module
                                -------------------


                                     Annealing
                                     ---------

 Scaling coordinates for geometry "geometry" by  1.889725989
 (inverse scale =  0.529177249)

 C1  symmetry detected

          ------
          auto-z
          ------
  autoz: The atoms group into disjoint clusters
 cluster   1:    1    2    3
 cluster   2:    4    5    6   11
 cluster   3:    7
 cluster   4:    8
 cluster   5:    9
 cluster   6:   10
 cluster   7:   12
 cluster   8:   13
 cluster   9:   14
 Clusters   1   2 closest atoms are    1    6 r = 3.45 ... close but too far?
 Connecting clusters   1   3 via atoms    1    7 r = 6.68
 Connecting clusters   1   4 via atoms    1    8 r = 6.73
 Connecting clusters   1   5 via atoms    1    9 r = 6.00
 Connecting clusters   1   6 via atoms    3   10 r = 4.94
 Connecting clusters   1   7 via atoms    2   12 r = 4.98
 Connecting clusters   1   8 via atoms    2   13 r = 5.42
 Connecting clusters   1   9 via atoms    3   14 r = 5.06
 Connecting clusters   2   3 via atoms    4    7 r = 4.75
 Connecting clusters   2   4 via atoms    5    8 r = 7.90
 Connecting clusters   2   5 via atoms    5    9 r = 6.68
 Connecting clusters   2   6 via atoms    6   10 r = 8.05
 Connecting clusters   2   7 via atoms    6   12 r = 5.13
 Connecting clusters   2   8 via atoms    6   13 r = 7.29
 Connecting clusters   2   9 via atoms    5   14 r = 9.52
 Connecting clusters   3   4 via atoms    7    8 r = 7.00
 Connecting clusters   3   5 via atoms    7    9 r = 9.90
 Connecting clusters   3   6 via atoms    7   10 r =12.12
 Connecting clusters   3   7 via atoms    7   12 r = 9.90
 Connecting clusters   3   8 via atoms    7   13 r = 7.00
 Connecting clusters   3   9 via atoms    7   14 r = 9.90
 Connecting clusters   4   5 via atoms    8    9 r = 7.00
 Connecting clusters   4   6 via atoms    8   10 r = 9.90
 Connecting clusters   4   7 via atoms    8   12 r =12.12
 Connecting clusters   4   8 via atoms    8   13 r = 9.90
 Connecting clusters   4   9 via atoms    8   14 r = 7.00
 Connecting clusters   5   6 via atoms    9   10 r = 7.00
 Connecting clusters   5   7 via atoms    9   12 r = 9.90
 Connecting clusters   5   8 via atoms    9   13 r =12.12
 Connecting clusters   5   9 via atoms    9   14 r = 9.90
 Connecting clusters   6   7 via atoms   10   12 r = 7.00
 Connecting clusters   6   8 via atoms   10   13 r = 9.90
 Connecting clusters   6   9 via atoms   10   14 r = 7.00
 Connecting clusters   7   8 via atoms   12   13 r = 7.00
 Connecting clusters   7   9 via atoms   12   14 r = 9.90
 Connecting clusters   8   9 via atoms   13   14 r = 7.00
  autoz: regenerating connections with new bonds
      warning. autoz generated    8 bonds for atom    7
      warning. autoz generated    8 bonds for atom    8
      warning. autoz generated    8 bonds for atom    9
      warning. autoz generated    8 bonds for atom   10
      warning. autoz generated    8 bonds for atom   12
      warning. autoz generated    8 bonds for atom   13
      warning. autoz generated    8 bonds for atom   14
  autoz: excessive number of variables                  1593                   36

 AUTOZ failed to generate good internal coordinates.
 Cartesian coordinates will be used in optimizations.



                             Geometry "geometry" -> ""
                             -------------------------

 Output coordinates in angstroms (scale by  1.889725989 to convert to a.u.)

  No.       Tag          Charge          X              Y              Z
 ---- ---------------- ---------- -------------- -------------- --------------
    1 H                    1.0000    -0.68523104     1.49991533     0.24155920
    2 O                    8.0000     0.06308707     2.03481510    -0.03217618
    3 H                    1.0000    -0.29320424     2.92586155    -0.04320136
    4 H                    1.0000     0.44726138    -2.74851547    -0.41108030
    5 O                    8.0000    -0.06043318    -2.03111010    -0.02558762
    6 H                    1.0000     0.50994272    -1.70690142     0.67483289
    7 Xx                   0.0000    -0.56696245    -2.58384377    -5.04419991
    8 Xx                   0.0000    -6.14988090     1.41628832    -3.69143796
    9 Xx                   0.0000    -5.67488678    -0.21706823     3.09874075
   10 Xx                   0.0000    -1.47900759     5.29029863     4.13000606
   11 Xx                   0.0000    -0.09196833    -4.21720031     1.74597881
   12 Xx                   0.0000     4.10391086     1.29016654     2.77724412
   13 Xx                   0.0000     3.62891674     2.92352309    -4.01293460
   14 Xx                   0.0000    -1.95400171     6.92365517    -2.66017265

      Atomic Mass 
      ----------- 

      H                  1.007825
      O                 15.994910


 Effective nuclear repulsion energy (a.u.)      31.1631792980

            Nuclear Dipole moment (a.u.) 
            ----------------------------
        X                 Y               Z
 ---------------- ---------------- ----------------
    -0.0000000000    -0.0000000000    -0.0000000000


            XYZ format geometry
            -------------------
    14
 geometry
 H                    -0.68523104     1.49991533     0.24155920
 O                     0.06308707     2.03481510    -0.03217618
 H                    -0.29320424     2.92586155    -0.04320136
 H                     0.44726138    -2.74851547    -0.41108030
 O                    -0.06043318    -2.03111010    -0.02558762
 H                     0.50994272    -1.70690142     0.67483289
 Xx                   -0.56696245    -2.58384377    -5.04419991
 Xx                   -6.14988090     1.41628832    -3.69143796
 Xx                   -5.67488678    -0.21706823     3.09874075
 Xx                   -1.47900759     5.29029863     4.13000606
 Xx                   -0.09196833    -4.21720031     1.74597881
 Xx                    4.10391086     1.29016654     2.77724412
 Xx                    3.62891674     2.92352309    -4.01293460
 Xx                   -1.95400171     6.92365517    -2.66017265

 ==============================================================================
                                internuclear distances
 ------------------------------------------------------------------------------
       center one      |      center two      | atomic units |  angstroms
 ------------------------------------------------------------------------------
    2 O                |   1 H                |     1.81357  |     0.95970
    3 H                |   2 O                |     1.81357  |     0.95970
    5 O                |   4 H                |     1.81357  |     0.95970
    6 H                |   5 O                |     1.81357  |     0.95970
   11 Xx               |   5 O                |     5.31763  |     2.81397
 ------------------------------------------------------------------------------
                         number of included internuclear distances:          5
 ==============================================================================



 ==============================================================================
                                 internuclear angles
 ------------------------------------------------------------------------------
        center 1       |       center 2       |       center 3       |  degrees
 ------------------------------------------------------------------------------
    1 H                |   2 O                |   3 H                |   103.37
    4 H                |   5 O                |   6 H                |   103.37
    4 H                |   5 O                |  11 Xx               |    71.22
    6 H                |   5 O                |  11 Xx               |    79.03
 ------------------------------------------------------------------------------
                            number of included internuclear angles:          4
 ==============================================================================



                      Basis "ao basis" -> "" (cartesian)
                      -----
  O (Oxygen)
  ----------
            Exponent  Coefficients 
       -------------- ---------------------------------------------------------
  1 S  1.30709320E+02  0.154329
  1 S  2.38088610E+01  0.535328
  1 S  6.44360830E+00  0.444635

  2 S  5.03315130E+00 -0.099967
  2 S  1.16959610E+00  0.399513
  2 S  3.80389000E-01  0.700115

  3 P  5.03315130E+00  0.155916
  3 P  1.16959610E+00  0.607684
  3 P  3.80389000E-01  0.391957

  H (Hydrogen)
  ------------
            Exponent  Coefficients 
       -------------- ---------------------------------------------------------
  1 S  3.42525091E+00  0.154329
  1 S  6.23913730E-01  0.535328
  1 S  1.68855400E-01  0.444635



 Summary of "ao basis" -> "" (cartesian)
 ------------------------------------------------------------------------------
       Tag                 Description            Shells   Functions and Types
 ---------------- ------------------------------  ------  ---------------------
 O                           sto-3g                  3        5   2s1p
 H                           sto-3g                  1        1   1s


                                 NWChem SCF Module
                                 -----------------


                                     Annealing



  ao basis        = "ao basis"
  functions       =    14
  atoms           =    14
  closed shells   =    10
  open shells     =     0
  charge          =   0.00
  wavefunction    = RHF 
  input vectors   = atomic
  output vectors  = ./anneal.movecs
  use symmetry    = F
  symmetry adapt  = F


 Summary of "ao basis" -> "ao basis" (cartesian)
 ------------------------------------------------------------------------------
       Tag                 Description            Shells   Functions and Types
 ---------------- ------------------------------  ------  ---------------------
 O                           sto-3g                  3        5   2s1p
 H                           sto-3g                  1        1   1s



 Forming initial guess at       1.1s


      Superposition of Atomic Density Guess
      -------------------------------------

 Sum of atomic energies:        -149.42191185

      Non-variational initial energy
      ------------------------------

 Total energy =    -149.357175
 1-e energy   =    -269.128509
 2-e energy   =      88.608155
 HOMO         =      -0.257891
 LUMO         =       0.499497


 Starting SCF solution at       1.1s



 ----------------------------------------------
         Quadratically convergent ROHF

 Convergence threshold     :          1.000E-04
 Maximum no. of iterations :           30
 Final Fock-matrix accuracy:          1.000E-07
 ----------------------------------------------


 #quartets = 1.164D+03 #integrals = 3.875D+03 #direct =  0.0% #cached =100.0%


 Integral file          = /home/scratch/nwchem/danian/anneal.aoints.0
 Record size in doubles =  65536        No. of integs per rec  =  43688
 Max. records in memory =      2        Max. records in file   = 199239
 No. of bits per label  =      8        No. of bits per value  =     64


File balance: exchanges=     0  moved=     0  time=   0.0


              iter       energy          gnorm     gmax       time
             ----- ------------------- --------- --------- --------
                 1     -149.8505815135  9.16D-01  5.50D-01      0.9
                 2     -149.9261289035  1.93D-01  8.17D-02      0.9
                 3     -149.9277773494  3.75D-03  2.41D-03      0.9
                 4     -149.9277793428  1.11D-05  5.08D-06      0.9


       Final RHF  results 
       ------------------ 

         Total SCF energy =   -149.927779342813
      One-electron energy =   -270.351960111482
      Two-electron energy =     89.261001470680
 Nuclear repulsion energy =     31.163179297989

        Time for solution =      0.8s


             Final eigenvalues
             -----------------

              1      
    1  -20.2409
    2  -20.2389
    3   -1.2660
    4   -1.2642
    5   -0.6128
    6   -0.6098
    7   -0.4537
    8   -0.4514
    9   -0.3895
   10   -0.3878
   11    0.6042
   12    0.6136
   13    0.7377
   14    0.7419

                       ROHF Final Molecular Orbital Analysis
                       -------------------------------------

 Vector    2  Occ=2.000000D+00  E=-2.023889D+01
              MO Center=  6.3D-02,  2.0D+00, -3.2D-02, r^2= 1.5D-02
   Bfn.  Coefficient  Atom+Function         Bfn.  Coefficient  Atom+Function  
  ----- ------------  ---------------      ----- ------------  ---------------
     2      0.994138   2 O  s         

 Vector    3  Occ=2.000000D+00  E=-1.266041D+00
              MO Center=  1.1D-01, -2.1D+00,  2.5D-02, r^2= 6.3D-01
   Bfn.  Coefficient  Atom+Function         Bfn.  Coefficient  Atom+Function  
  ----- ------------  ---------------      ----- ------------  ---------------
    10      0.832210   5 O  s                 9     -0.232227   5 O  s         
     8      0.157882   4 H  s                14      0.157691   6 H  s         

 Vector    4  Occ=2.000000D+00  E=-1.264175D+00
              MO Center= -1.1D-01,  2.1D+00,  1.0D-02, r^2= 6.3D-01
   Bfn.  Coefficient  Atom+Function         Bfn.  Coefficient  Atom+Function  
  ----- ------------  ---------------      ----- ------------  ---------------
     3      0.832159   2 O  s                 2     -0.232215   2 O  s         
     7      0.158363   3 H  s                 1      0.157232   1 H  s         

 Vector    5  Occ=2.000000D+00  E=-6.127834D-01
              MO Center=  1.3D-01, -1.5D+00,  4.2D-02, r^2= 3.0D+00
   Bfn.  Coefficient  Atom+Function         Bfn.  Coefficient  Atom+Function  
  ----- ------------  ---------------      ----- ------------  ---------------
     8      0.413793   4 H  s                14     -0.413020   6 H  s         
    13     -0.406400   5 O  pz               12     -0.391020   5 O  py        
     5      0.213228   2 O  py                1     -0.166327   1 H  s         
     7      0.165374   3 H  s         

 Vector    6  Occ=2.000000D+00  E=-6.098427D-01
              MO Center= -1.3D-01,  1.5D+00,  2.8D-02, r^2= 3.0D+00
   Bfn.  Coefficient  Atom+Function         Bfn.  Coefficient  Atom+Function  
  ----- ------------  ---------------      ----- ------------  ---------------
     5      0.534922   2 O  py                7      0.414738   3 H  s         
     1     -0.412209   1 H  s                 8     -0.166205   4 H  s         
    13      0.165446   5 O  pz               14      0.165593   6 H  s         
    12      0.155522   5 O  py        

 Vector    7  Occ=2.000000D+00  E=-4.536519D-01
              MO Center= -9.2D-02, -1.9D+00, -3.6D-02, r^2= 9.9D-01
   Bfn.  Coefficient  Atom+Function         Bfn.  Coefficient  Atom+Function  
  ----- ------------  ---------------      ----- ------------  ---------------
    11      0.692873   5 O  px               10     -0.532092   5 O  s         
     8      0.275947   4 H  s                14      0.277078   6 H  s         
    12     -0.251000   5 O  py               13      0.201957   5 O  pz        

 Vector    8  Occ=2.000000D+00  E=-4.514403D-01
              MO Center=  9.6D-02,  1.9D+00, -4.0D-02, r^2= 9.9D-01
   Bfn.  Coefficient  Atom+Function         Bfn.  Coefficient  Atom+Function  
  ----- ------------  ---------------      ----- ------------  ---------------
     4      0.710536   2 O  px                3      0.532418   2 O  s         
     1     -0.275948   1 H  s                 7     -0.276921   3 H  s         
     5     -0.226844   2 O  py                6     -0.165723   2 O  pz        

 Vector    9  Occ=2.000000D+00  E=-3.895372D-01
              MO Center= -6.0D-02, -2.0D+00, -2.6D-02, r^2= 4.2D-01
   Bfn.  Coefficient  Atom+Function         Bfn.  Coefficient  Atom+Function  
  ----- ------------  ---------------      ----- ------------  ---------------
    12      0.642884   5 O  py               13     -0.640599   5 O  pz        
    11      0.419811   5 O  px        

 Vector   10  Occ=2.000000D+00  E=-3.877563D-01
              MO Center=  6.3D-02,  2.0D+00, -3.3D-02, r^2= 4.2D-01
   Bfn.  Coefficient  Atom+Function         Bfn.  Coefficient  Atom+Function  
  ----- ------------  ---------------      ----- ------------  ---------------
     6      0.957303   2 O  pz                4      0.263233   2 O  px        

 Vector   11  Occ=0.000000D+00  E= 6.041906D-01
              MO Center=  7.9D-02, -4.7D-01,  1.1D-01, r^2= 5.8D+00
   Bfn.  Coefficient  Atom+Function         Bfn.  Coefficient  Atom+Function  
  ----- ------------  ---------------      ----- ------------  ---------------
    10      0.682860   5 O  s                14     -0.624398   6 H  s         
     8     -0.608651   4 H  s                 3      0.550533   2 O  s         
    11      0.527253   5 O  px                1     -0.509493   1 H  s         
     7     -0.485023   3 H  s                 4     -0.440063   2 O  px        
    12     -0.182872   5 O  py               13      0.161361   5 O  pz        

 Vector   12  Occ=0.000000D+00  E= 6.136450D-01
              MO Center= -8.7D-02,  4.7D-01,  8.1D-02, r^2= 6.0D+00
   Bfn.  Coefficient  Atom+Function         Bfn.  Coefficient  Atom+Function  
  ----- ------------  ---------------      ----- ------------  ---------------
     3      0.683648   2 O  s                 7     -0.636358   3 H  s         
     1     -0.601578   1 H  s                10     -0.551554   5 O  s         
     4     -0.534242   2 O  px                8      0.513117   4 H  s         
    14      0.487104   6 H  s                11     -0.425195   5 O  px        
     5      0.196912   2 O  py               12      0.169369   5 O  py        

 Vector   13  Occ=0.000000D+00  E= 7.377052D-01
              MO Center=  1.4D-01, -1.1D+00,  5.4D-02, r^2= 4.5D+00
   Bfn.  Coefficient  Atom+Function         Bfn.  Coefficient  Atom+Function  
  ----- ------------  ---------------      ----- ------------  ---------------
     8      0.738309   4 H  s                14     -0.718574   6 H  s         
    13      0.616276   5 O  pz               12      0.597691   5 O  py        
     5     -0.461891   2 O  py                7      0.422198   3 H  s         
     1     -0.396462   1 H  s         

 Vector   14  Occ=0.000000D+00  E= 7.418870D-01
              MO Center= -1.4D-01,  1.1D+00,  6.5D-02, r^2= 4.4D+00
   Bfn.  Coefficient  Atom+Function         Bfn.  Coefficient  Atom+Function  
  ----- ------------  ---------------      ----- ------------  ---------------
     5      0.808698   2 O  py                1      0.744908   1 H  s         
     7     -0.715788   3 H  s                14     -0.434774   6 H  s         
     8      0.391261   4 H  s                13      0.354538   5 O  pz        
    12      0.326176   5 O  py                4      0.235020   2 O  px        
     6     -0.164853   2 O  pz        


 center of mass
 --------------
 x =   0.00110440 y =   0.00154181 z =  -0.02403793

 moments of inertia (a.u.)
 ------------------
         551.257780797440          -0.000000000000           0.000000000000
          -0.000000000000           6.630641538979           0.000000000000
           0.000000000000           0.000000000000         552.809196537688

  Mulliken analysis of the total density
  --------------------------------------

    Atom       Charge   Shell Charges
 -----------   ------   -------------------------------------------------------
    1 H    1     0.82   0.82
    2 O    8     8.36   2.00  1.83  4.53
    3 H    1     0.82   0.82
    4 H    1     0.82   0.82
    5 O    8     8.36   2.00  1.83  4.53
    6 H    1     0.82   0.82

       Multipole analysis of the density wrt the origin
       ------------------------------------------------

     L   x y z        total         open         nuclear
     -   - - -        -----         ----         -------
     0   0 0 0     -0.000000      0.000000     20.000000

     1   1 0 0     -0.016576      0.000000     -0.000000
     1   0 1 0     -0.026709      0.000000     -0.000000
     1   0 0 1      0.333291      0.000000     -0.000000

     2   2 0 0     -7.848438      0.000000      3.844793
     2   1 1 0     -4.898586      0.000000     -7.058047
     2   1 0 1      0.010367      0.000000      0.012643
     2   0 2 0     -3.904363      0.000000    312.129975
     2   0 1 1      0.273654      0.000000      0.378154
     2   0 0 2     -8.294126      0.000000      2.493045


 Parallel integral file used       8 records with       0 large values


 Task  times  cpu:        0.8s     wall:        0.9s


                                NWChem Input Module
                                -------------------


 Summary of allocated global arrays
-----------------------------------
  No active global arrays



                         GA Statistics for process    0
                         ------------------------------

       create   destroy   get      put      acc     scatter   gather  read&inc
calls:  182      182      774      366      603        0        0       12     
number of processes/call 1.43e+00 1.44e+00 1.21e+00 0.00e+00 0.00e+00
bytes total:             3.78e+05 2.21e+05 5.69e+04 0.00e+00 0.00e+00 9.60e+01
bytes remote:            2.35e+04 1.29e+04 7.31e+03 0.00e+00 0.00e+00 0.00e+00
Max memory consumed for GA by this process: 15152 bytes

MA_summarize_allocated_blocks: starting scan ...
MA_summarize_allocated_blocks: scan completed: 0 heap blocks, 0 stack blocks
MA usage statistics:

	allocation statistics:
					      heap	     stack
					      ----	     -----
	current number of blocks	         0	         0
	maximum number of blocks	        17	        14
	current total bytes		         0	         0
	maximum total bytes		   1056784	  22509448
	maximum total K-bytes		      1057	     22510
	maximum total M-bytes		         2	        23


                                     CITATION
                                     --------
                Please cite the following reference when publishing
                           results obtained with NWChem:

                 M. Valiev, E.J. Bylaska, N. Govind, K. Kowalski,
              T.P. Straatsma, H.J.J. van Dam, D. Wang, J. Nieplocha,
                        E. Apra, T.L. Windus, W.A. de Jong
                 "NWChem: a comprehensive and scalable open-source
                  solution for large scale molecular simulations"
                      Comput. Phys. Commun. 181, 1477 (2010)
                           doi:10.1016/j.cpc.2010.04.018

                              AUTHORS & CONTRIBUTORS
                              ----------------------
          E. Apra, E. J. Bylaska, W. A. de Jong, N. Govind, K. Kowalski,
       T. P. Straatsma, M. Valiev, H. J. J. van Dam, D. Wang, T. L. Windus,
        J. Hammond, J. Autschbach, K. Bhaskaran-Nair, J. Brabec, K. Lopata,
     F. Aquino, S. Hirata, M. T. Hackler, J. Mullin, P. Nichols, R. Peverati,
    J. Pittner, Y. Zhao, P.-D. Fan, R. J. Harrison, M. Dupuis, D. Silverstein,
    D. M. A. Smith, J. Nieplocha, V. Tipparaju, M. Krishnan, B. E. Van Kuiken,
        A. Vazquez-Mayagoitia, L. Jensen, M. Swart, Q. Wu, T. Van Voorhis,
     A. A. Auer, M. Nooijen, L. D. Crosby, E. Brown, G. Cisneros, G. I. Fann,
     H. Fruchtl, J. Garza, K. Hirao, R. Kendall, J. A. Nichols, K. Tsemekhman,
      K. Wolinski, J. Anchell, D. Bernholdt, P. Borowski, T. Clark, D. Clerc,
      H. Dachsel, M. Deegan, K. Dyall, D. Elwood, E. Glendening, M. Gutowski,
      A. Hess, J. Jaffe, B. Johnson, J. Ju, R. Kobayashi, R. Kutteh, Z. Lin,
   R. Littlefield, X. Long, B. Meng, T. Nakajima, S. Niu, L. Pollack, M. Rosing,
   K. Glaesemann, G. Sandrone, M. Stave, H. Taylor, G. Thomas, J. H. van Lenthe,
                                A. Wong, Z. Zhang.

 Total times  cpu:        0.8s     wall:        2.0s
