           6
 Configuration:    1  Energy(u.a.)=      0.00000000
  H      0.000000    0.753010   -0.475986
  O      0.000000    0.000000    0.118997
  H      0.000000   -0.753010   -0.475986
  H      0.000000    0.753010   -0.475986
  O      0.000000    0.000000    0.118997
  H      0.000000   -0.753010   -0.475986
           6
 Configuration:    2  Energy(u.a.)=   -149.86334237
  H     -0.762840    1.412206   -1.214765
  O     -0.687332    0.660335   -0.623143
  H     -1.043316   -0.065586   -1.140196
  H      0.249225   -0.330911   -1.453332
  O      0.960620   -0.532230   -0.841435
  H      1.149735   -1.456538   -1.017276
           6
 Configuration:    3  Energy(u.a.)=   -149.93038899
  H     -1.773095    0.907045   -1.981591
  O     -1.614691    0.030338   -1.624768
  H     -2.349520   -0.484207   -1.965794
  H      0.483895   -0.549515   -0.669152
  O      1.396151   -0.295311   -0.824710
  H      1.871339   -1.127088   -0.766640
           6
 Configuration:   18  Energy(u.a.)=   -149.92949548
  H     -1.595762    0.945552   -2.429706
  O     -1.171969    1.778803   -2.212634
  H     -1.896707    2.319095   -1.890348
  H      1.754136    1.563016   -1.950725
  O      2.171682    0.762891   -1.624404
  H      1.655709    0.545259   -0.845022
           6
 Configuration:   71  Energy(u.a.)=   -149.92992073
  H     -0.854502   -2.701261   -2.439332
  O     -1.663895   -3.216920   -2.441956
  H     -1.463217   -3.948005   -1.853507
  H     -0.607991   -0.182035   -0.614927
  O     -0.054688   -0.700550   -1.203167
  H      0.795364   -0.709557   -0.757792
