----- GAMESS execution script 'rungms' -----
This job is running on host danian
under operating system Linux at lun ene 19 09:12:17 COT 2015
Available scratch disk space (Kbyte units) at beginning of the job is
Filesystem     1K-blocks    Used Available Use% Mounted on
/dev/sda3      907474824 3342348 858012388   1% /home
GAMESS temporary binary files will be written to /home/scratch/gamess/danian
GAMESS supplementary output files will be written to /home/scratch/gamess/danian
Copying input file anneal.inp to your run's scratch directory...

 Distributed Data Interface kickoff program.
 Initiating 8 compute processes on 1 nodes to run the following command:
 /usr/src/gamess/gamess.01.x anneal 

          ******************************************************
          *         GAMESS VERSION =  1 MAY 2013 (R1)          *
          *             FROM IOWA STATE UNIVERSITY             *
          * M.W.SCHMIDT, K.K.BALDRIDGE, J.A.BOATZ, S.T.ELBERT, *
          *   M.S.GORDON, J.H.JENSEN, S.KOSEKI, N.MATSUNAGA,   *
          *          K.A.NGUYEN, S.J.SU, T.L.WINDUS,           *
          *       TOGETHER WITH M.DUPUIS, J.A.MONTGOMERY       *
          *         J.COMPUT.CHEM.  14, 1347-1363(1993)        *
          **************** 64 BIT LINUX VERSION ****************

  SINCE 1993, STUDENTS AND POSTDOCS WORKING AT IOWA STATE UNIVERSITY
  AND ALSO IN THEIR VARIOUS JOBS AFTER LEAVING ISU HAVE MADE IMPORTANT
  CONTRIBUTIONS TO THE CODE:
     IVANA ADAMOVIC, CHRISTINE AIKENS, YURI ALEXEEV, POOJA ARORA,
     ANDREY ASADCHEV, ROB BELL, PRADIPTA BANDYOPADHYAY, JONATHAN BENTZ,
     BRETT BODE, GALINA CHABAN, WEI CHEN, CHEOL HO CHOI, PAUL DAY,
     ALBERT DEFUSCO, TIM DUDLEY, DMITRI FEDOROV, GRAHAM FLETCHER,
     MARK FREITAG, KURT GLAESEMANN, DAN KEMP, GRANT MERRILL,
     NORIYUKI MINEZAWA, JONATHAN MULLIN, TAKESHI NAGATA,
     SEAN NEDD, HEATHER NETZLOFF, BOSILJKA NJEGIC, RYAN OLSON, MIKE PAK,
     JIM SHOEMAKER, LYUDMILA SLIPCHENKO, SAROM SOK, JIE SONG,
     TETSUYA TAKETSUGU, SIMON WEBB, SOOHAENG YOO, FEDERICO ZAHARIEV

  ADDITIONAL CODE HAS BEEN PROVIDED BY COLLABORATORS IN OTHER GROUPS:
     IOWA STATE UNIVERSITY:
          JOE IVANIC, LAIMUTIS BYTAUTAS, KLAUS RUEDENBERG
     UNIVERSITY OF TOKYO: KIMIHIKO HIRAO, TAKAHITO NAKAJIMA,
          TAKAO TSUNEDA, MUNEAKI KAMIYA, SUSUMU YANAGISAWA,
          KIYOSHI YAGI, MAHITO CHIBA, SEIKEN TOKURA, NAOAKI KAWAKAMI
     UNIVERSITY OF AARHUS: FRANK JENSEN
     UNIVERSITY OF IOWA: VISVALDAS KAIRYS, HUI LI
     NATIONAL INST. OF STANDARDS AND TECHNOLOGY: WALT STEVENS, DAVID GARMER
     UNIVERSITY OF PISA: BENEDETTA MENNUCCI, JACOPO TOMASI
     UNIVERSITY OF MEMPHIS: HENRY KURTZ, PRAKASHAN KORAMBATH
     UNIVERSITY OF ALBERTA: TOBY ZENG, MARIUSZ KLOBUKOWSKI
     UNIVERSITY OF NEW ENGLAND: MARK SPACKMAN
     MIE UNIVERSITY: HIROAKI UMEDA
     MICHIGAN STATE UNIVERSITY:
          KAROL KOWALSKI, MARTA WLOCH, JEFFREY GOUR, JESSE LUTZ,
          WEI LI, PIOTR PIECUCH
     UNIVERSITY OF SILESIA: MONIKA MUSIAL, STANISLAW KUCHARSKI
     FACULTES UNIVERSITAIRES NOTRE-DAME DE LA PAIX:
          OLIVIER QUINET, BENOIT CHAMPAGNE
     UNIVERSITY OF CALIFORNIA - SANTA BARBARA: BERNARD KIRTMAN
     INSTITUTE FOR MOLECULAR SCIENCE:
          KAZUYA ISHIMURA, MICHIO KATOUDA, AND SHIGERU NAGASE
     UNIVERSITY OF NOTRE DAME: DAN CHIPMAN
     KYUSHU UNIVERSITY:
          HARUYUKI NAKANO,
          FENG LONG GU, JACEK KORCHOWIEC, MARCIN MAKOWSKI, AND YURIKO AOKI,
          HIROTOSHI MORI AND EISAKU MIYOSHI
     PENNSYLVANIA STATE UNIVERSITY:
          TZVETELIN IORDANOV, CHET SWALINA, JONATHAN SKONE,
          SHARON HAMMES-SCHIFFER
     WASEDA UNIVERSITY:
          MASATO KOBAYASHI, TOMOKO AKAMA, TSUGUKI TOUMA,
          TAKESHI YOSHIKAWA, YASUHIRO IKABATA, HIROMI NAKAI
     NANJING UNIVERSITY: SHUHUA LI
     UNIVERSITY OF NEBRASKA:
          PEIFENG SU, DEJUN SI, NANDUN THELLAMUREGE, YALI WANG, HUI LI
     UNIVERSITY OF ZURICH:
          ROBERTO PEVERATI, KIM BALDRIDGE
     N. COPERNICUS UNIVERSITY AND JACKSON STATE UNIVERSITY:
          MARIA BARYSZ


 PARALLEL VERSION RUNNING ON     8 PROCESSORS IN     1 NODES.

 EXECUTION OF GAMESS BEGUN Mon Jan 19 09:12:17 2015

            ECHO OF THE FIRST FEW INPUT CARDS -
 INPUT CARD> $CONTRL RUNTYP=Energy $END                                                     
 INPUT CARD> $CONTRL SCFTYP=RHF $END                                                        
 INPUT CARD> $BASIS GBASIS=sto NGAUSS=           3  $END                                    
 INPUT CARD> $CONTRL ICHARG=           0  MULT=           1  $END                           
 INPUT CARD> $DATA                                                                          
 INPUT CARD> Molecule specification                                                         
 INPUT CARD> C1                                                                             
 INPUT CARD>H   1               0.090828              -0.467547               0.420853      
 INPUT CARD>O   8              -0.621346              -0.094532              -0.103262      
 INPUT CARD>H   1              -1.410682              -0.457035               0.304866      
 INPUT CARD>H   1              -2.423133               0.923920               1.464863      
 INPUT CARD>O   8              -3.044567               0.900268               0.733912      
 INPUT CARD>H   1              -3.035455              -0.020811               0.464543      
 INPUT CARD>Xx  0              -3.500000              -3.500000              -3.500000      
 INPUT CARD>Xx  0               3.500000              -3.500000              -3.500000      
 INPUT CARD>Xx  0               3.500000               3.500000              -3.500000      
 INPUT CARD>Xx  0               3.500000               3.500000               3.500000      
 INPUT CARD>Xx  0              -3.500000               3.500000              -3.500000      
 INPUT CARD>Xx  0              -3.500000               3.500000               3.500000      
 INPUT CARD>Xx  0              -3.500000              -3.500000               3.500000      
 INPUT CARD>Xx  0               3.500000              -3.500000               3.500000      
 INPUT CARD> $END                                                                           
    1000000 WORDS OF MEMORY AVAILABLE

     BASIS OPTIONS
     -------------
     GBASIS=STO          IGAUSS=       3      POLAR=NONE    
     NDFUNC=       0     NFFUNC=       0     DIFFSP=       F
     NPFUNC=       0      DIFFS=       F     BASNAM=        


     RUN TITLE
     ---------
  Molecule specification                                                         

 THE POINT GROUP OF THE MOLECULE IS C1      
 THE ORDER OF THE PRINCIPAL AXIS IS     0

 ATOM      ATOMIC                      COORDINATES (BOHR)
           CHARGE         X                   Y                   Z
 H           1.0     0.1716400320       -0.8835357164        0.7952968511
 O           8.0    -1.1741736836       -0.1786395771       -0.1951368849
 H           1.0    -2.6658024358       -0.8636709168        0.5761132030
 H           1.0    -4.5790574018        1.7459556346        2.7681896796
 O           8.0    -5.7533973813        1.7012598355        1.3868925791
 H           1.0    -5.7361781981       -0.0393270875        0.8778589795
 XX          0.0    -6.6140409570       -6.6140409570       -6.6140409570
 XX          0.0     6.6140409570       -6.6140409570       -6.6140409570
 XX          0.0     6.6140409570        6.6140409570       -6.6140409570
 XX          0.0     6.6140409570        6.6140409570        6.6140409570
 XX          0.0    -6.6140409570        6.6140409570       -6.6140409570
 XX          0.0    -6.6140409570        6.6140409570        6.6140409570
 XX          0.0    -6.6140409570       -6.6140409570        6.6140409570
 XX          0.0     6.6140409570       -6.6140409570        6.6140409570

          INTERNUCLEAR DISTANCES (ANGS.)
          ------------------------------

                1 H          2 O          3 H          4 H          5 O     

   1 H       0.0000000    0.9597023 *  1.5060198 *  3.0571453    3.4350583  
   2 O       0.9597023 *  0.0000000    0.9597021 *  2.5966703 *  2.7499977 *
   3 H       1.5060198 *  0.9597021 *  0.0000000    2.0682569 *  2.1670099 *
   4 H       3.0571453    2.5966703 *  2.0682569 *  0.0000000    0.9597026 *
   5 O       3.4350583    2.7499977 *  2.1670099 *  0.9597026 *  0.0000000  
   6 H       3.1583425    2.4810803 *  1.6898744 *  1.5060196 *  0.9597027 *
   7 XX      6.1206948    5.6055053    5.3011217    6.7365106    6.1233805  
   8 XX      6.0159216    6.3340772    6.9174735    8.9053039    8.9509623  
   9 XX      6.5373520    6.4377001    7.3654551    8.1467513    8.2168105  
  10 XX      6.0700106    6.5490190    7.0697811    6.7721101    7.5657919  
  11 XX      6.6338950    5.7223368    5.8737025    5.6961123    4.9891920  
  12 XX      6.1738660    5.8472905    5.4983868    3.4550851    3.8232537  
  13 XX      5.6188044    5.7330060    4.8819839    4.9872330    5.2173768  
  14 XX      5.5044865    6.4471856    6.6017660    7.6678781    8.3573296  

                6 H          7 XX         8 XX         9 XX        10 XX    

   1 H       3.1583425    6.1206948    6.0159216    6.5373520    6.0700106  
   2 O       2.4810803 *  5.6055053    6.3340772    6.4377001    6.5490190  
   3 H       1.6898744 *  5.3011217    6.9174735    7.3654551    7.0697811  
   4 H       1.5060196 *  6.7365106    8.9053039    8.1467513    6.7721101  
   5 O       0.9597027 *  6.1233805    8.9509623    8.2168105    7.5657919  
   6 H       0.0000000    5.2951071    8.3984838    8.4158115    8.0201173  
   7 XX      5.2951071    0.0000000    7.0000000    9.8994949   12.1243557  
   8 XX      8.3984838    7.0000000    0.0000000    7.0000000    9.8994949  
   9 XX      8.4158115    9.8994949    7.0000000    0.0000000    7.0000000  
  10 XX      8.0201173   12.1243557    9.8994949    7.0000000    0.0000000  
  11 XX      5.3225476    7.0000000    9.8994949    7.0000000    9.8994949  
  12 XX      4.6718210    9.8994949   12.1243557    9.8994949    7.0000000  
  13 XX      4.6405342    7.0000000    9.8994949   12.1243557    9.8994949  
  14 XX      8.0019327    9.8994949    7.0000000    9.8994949    7.0000000  

               11 XX        12 XX        13 XX        14 XX    

   1 H       6.6338950    6.1738660    5.6188044    5.5044865  
   2 O       5.7223368    5.8472905    5.7330060    6.4471856  
   3 H       5.8737025    5.4983868    4.8819839    6.6017660  
   4 H       5.6961123    3.4550851    4.9872330    7.6678781  
   5 O       4.9891920    3.8232537    5.2173768    8.3573296  
   6 H       5.3225476    4.6718210    4.6405342    8.0019327  
   7 XX      7.0000000    9.8994949    7.0000000    9.8994949  
   8 XX      9.8994949   12.1243557    9.8994949    7.0000000  
   9 XX      7.0000000    9.8994949   12.1243557    9.8994949  
  10 XX      9.8994949    7.0000000    9.8994949    7.0000000  
  11 XX      0.0000000    7.0000000    9.8994949   12.1243557  
  12 XX      7.0000000    0.0000000    7.0000000    9.8994949  
  13 XX      9.8994949    7.0000000    0.0000000    7.0000000  
  14 XX     12.1243557    9.8994949    7.0000000    0.0000000  

  * ... LESS THAN  3.000


     ATOMIC BASIS SET
     ----------------
 THE CONTRACTED PRIMITIVE FUNCTIONS HAVE BEEN UNNORMALIZED
 THE CONTRACTED BASIS FUNCTIONS ARE NOW NORMALIZED TO UNITY

  SHELL TYPE  PRIMITIVE        EXPONENT          CONTRACTION COEFFICIENT(S)

 H         

      1   S       1             3.4252509    0.154328967295
      1   S       2             0.6239137    0.535328142282
      1   S       3             0.1688554    0.444634542185

 O         

      2   S       4           130.7093214    0.154328967295
      2   S       5            23.8088661    0.535328142282
      2   S       6             6.4436083    0.444634542185

      3   L       7             5.0331513   -0.099967229187    0.155916274999
      3   L       8             1.1695961    0.399512826089    0.607683718598
      3   L       9             0.3803890    0.700115468880    0.391957393099

 H         

      4   S      10             3.4252509    0.154328967295
      4   S      11             0.6239137    0.535328142282
      4   S      12             0.1688554    0.444634542185

 H         

      5   S      13             3.4252509    0.154328967295
      5   S      14             0.6239137    0.535328142282
      5   S      15             0.1688554    0.444634542185

 O         

      6   S      16           130.7093214    0.154328967295
      6   S      17            23.8088661    0.535328142282
      6   S      18             6.4436083    0.444634542185

      7   L      19             5.0331513   -0.099967229187    0.155916274999
      7   L      20             1.1695961    0.399512826089    0.607683718598
      7   L      21             0.3803890    0.700115468880    0.391957393099

 H         

      8   S      22             3.4252509    0.154328967295
      8   S      23             0.6239137    0.535328142282
      8   S      24             0.1688554    0.444634542185

 XX        

 XX        

 XX        

 XX        

 XX        

 XX        

 XX        

 XX        

 TOTAL NUMBER OF BASIS SET SHELLS             =    8
 NUMBER OF CARTESIAN GAUSSIAN BASIS FUNCTIONS =   14
 NUMBER OF ELECTRONS                          =   20
 CHARGE OF MOLECULE                           =    0
 SPIN MULTIPLICITY                            =    1
 NUMBER OF OCCUPIED ORBITALS (ALPHA)          =   10
 NUMBER OF OCCUPIED ORBITALS (BETA )          =   10
 TOTAL NUMBER OF ATOMS                        =   14
 THE NUCLEAR REPULSION ENERGY IS       38.0951119746

     $CONTRL OPTIONS
     ---------------
 SCFTYP=RHF          RUNTYP=ENERGY       EXETYP=RUN     
 MPLEVL=       0     CITYP =NONE         CCTYP =NONE         VBTYP =NONE    
 DFTTYP=NONE         TDDFT =NONE    
 MULT  =       1     ICHARG=       0     NZVAR =       0     COORD =UNIQUE  
 PP    =NONE         RELWFN=NONE         LOCAL =NONE         NUMGRD=       F
 ISPHER=      -1     NOSYM =       0     MAXIT =      30     UNITS =ANGS    
 PLTORB=       F     MOLPLT=       F     AIMPAC=       F     FRIEND=        
 NPRINT=       7     IREST =       0     GEOM  =INPUT   
 NORMF =       0     NORMP =       0     ITOL  =      20     ICUT  =       9
 INTTYP=BEST         GRDTYP=BEST         QMTTOL= 1.0E-06

     $SYSTEM OPTIONS
     ---------------
  REPLICATED MEMORY=     1000000 WORDS (ON EVERY NODE).
 DISTRIBUTED MEMDDI=           0 MILLION WORDS IN AGGREGATE,
 MEMDDI DISTRIBUTED OVER   8 PROCESSORS IS           0 WORDS/PROCESSOR.
 TOTAL MEMORY REQUESTED ON EACH PROCESSOR=     1000000 WORDS.
 TIMLIM=      525600.00 MINUTES, OR     365.0 DAYS.
 PARALL= T  BALTYP=  DLB     KDIAG=    0  COREFL= F
 MXSEQ2=     300 MXSEQ3=     150

          ----------------
          PROPERTIES INPUT
          ----------------

     MOMENTS            FIELD           POTENTIAL          DENSITY
 IEMOM =       1   IEFLD =       0   IEPOT =       0   IEDEN =       0
 WHERE =COMASS     WHERE =NUCLEI     WHERE =NUCLEI     WHERE =NUCLEI  
 OUTPUT=BOTH       OUTPUT=BOTH       OUTPUT=BOTH       OUTPUT=BOTH    
 IEMINT=       0   IEFINT=       0                     IEDINT=       0
                                                       MORB  =       0
          EXTRAPOLATION IN EFFECT
          SOSCF IN EFFECT
 ORBITAL PRINTING OPTION: NPREO=     1    14     2     1

     -------------------------------
     INTEGRAL TRANSFORMATION OPTIONS
     -------------------------------
     NWORD  =            0
     CUTOFF = 1.0E-09     MPTRAN =       0
     DIRTRF =       F     AOINTS =DUP     

          ----------------------
          INTEGRAL INPUT OPTIONS
          ----------------------
 NOPK  =       1 NORDER=       0 SCHWRZ=       T

     ------------------------------------------
     THE POINT GROUP IS C1 , NAXIS= 0, ORDER= 1
     ------------------------------------------

     DIMENSIONS OF THE SYMMETRY SUBSPACES ARE
 A   =   14

 ..... DONE SETTING UP THE RUN .....
 CPU     0: STEP CPU TIME=     0.06 TOTAL CPU TIME=        0.1 (    0.0 MIN)
 TOTAL WALL CLOCK TIME=        0.1 SECONDS, CPU UTILIZATION IS 100.00%

          ********************
          1 ELECTRON INTEGRALS
          ********************
 ...... END OF ONE-ELECTRON INTEGRALS ......
 CPU     0: STEP CPU TIME=     0.01 TOTAL CPU TIME=        0.1 (    0.0 MIN)
 TOTAL WALL CLOCK TIME=        0.1 SECONDS, CPU UTILIZATION IS 100.00%

          -------------
          GUESS OPTIONS
          -------------
          GUESS =HUCKEL            NORB  =       0          NORDER=       0
          MIX   =       F          PRTMO =       F          PUNMO =       F
          TOLZ  = 1.0E-08          TOLE  = 1.0E-05
          SYMDEN=       F          PURIFY=       F

 INITIAL GUESS ORBITALS GENERATED BY HUCKEL   ROUTINE.
 HUCKEL GUESS REQUIRES     11144 WORDS.

 SYMMETRIES FOR INITIAL GUESS ORBITALS FOLLOW.   BOTH SET(S).
    10 ORBITALS ARE OCCUPIED (    2 CORE ORBITALS).
     3=A        4=A        5=A        6=A        7=A        8=A        9=A   
    10=A       11=A       12=A       13=A       14=A   
 ...... END OF INITIAL ORBITAL SELECTION ......
 CPU     0: STEP CPU TIME=     0.00 TOTAL CPU TIME=        0.1 (    0.0 MIN)
 TOTAL WALL CLOCK TIME=        0.1 SECONDS, CPU UTILIZATION IS 100.00%

                    ----------------------
                    AO INTEGRAL TECHNOLOGY
                    ----------------------
     S,P,L SHELL ROTATED AXIS INTEGRALS, REPROGRAMMED BY
        KAZUYA ISHIMURA (IMS) AND JOSE SIERRA (SYNSTAR).
     S,P,D,L SHELL ROTATED AXIS INTEGRALS PROGRAMMED BY
        KAZUYA ISHIMURA (INSTITUTE FOR MOLECULAR SCIENCE).
     S,P,D,F,G SHELL TO TOTAL QUARTET ANGULAR MOMENTUM SUM 5,
        ERIC PROGRAM BY GRAHAM FLETCHER (ELORET AND NASA ADVANCED
        SUPERCOMPUTING DIVISION, AMES RESEARCH CENTER).
     S,P,D,F,G,L SHELL GENERAL RYS QUADRATURE PROGRAMMED BY
        MICHEL DUPUIS (PACIFIC NORTHWEST NATIONAL LABORATORY).

          --------------------
          2 ELECTRON INTEGRALS
          --------------------

 THE -PK- OPTION IS OFF, THE INTEGRALS ARE NOT IN SUPERMATRIX FORM.
 STORING   15000 INTEGRALS/RECORD ON DISK, USING 12 BYTES/INTEGRAL.
 TWO ELECTRON INTEGRAL EVALUATION REQUIRES   89392 WORDS OF MEMORY.
 SCHWARZ INEQUALITY OVERHEAD:       104 INTEGRALS, T=        0.00
 II,JST,KST,LST =  1  1  1  1 NREC =         1 INTLOC =    1
 II,JST,KST,LST =  2  1  1  1 NREC =         1 INTLOC =    1
 II,JST,KST,LST =  3  1  1  1 NREC =         1 INTLOC =    1
 II,JST,KST,LST =  4  1  1  1 NREC =         1 INTLOC =    1
 II,JST,KST,LST =  5  1  1  1 NREC =         1 INTLOC =    1
 II,JST,KST,LST =  6  1  1  1 NREC =         1 INTLOC =    1
 II,JST,KST,LST =  7  1  1  1 NREC =         1 INTLOC =   65
 II,JST,KST,LST =  8  1  1  1 NREC =         1 INTLOC =  345
 SCHWARZ INEQUALITY TEST SKIPPED          36 INTEGRAL BLOCKS.
 TOTAL NUMBER OF NONZERO TWO-ELECTRON INTEGRALS =                5240
          8 INTEGRAL RECORDS WERE STORED ON DISK FILE  8.
  ...... END OF TWO-ELECTRON INTEGRALS .....
 CPU     0: STEP CPU TIME=     0.01 TOTAL CPU TIME=        0.1 (    0.0 MIN)
 TOTAL WALL CLOCK TIME=        0.1 SECONDS, CPU UTILIZATION IS 100.00%

          --------------------------
                 RHF SCF CALCULATION
          --------------------------

     NUCLEAR ENERGY =        38.0951119746
     MAXIT =   30     NPUNCH=    2
     EXTRAP=T  DAMP=F  SHIFT=F  RSTRCT=F  DIIS=F  DEM=F  SOSCF=T
     DENSITY MATRIX CONV=  1.00E-05
     SOSCF WILL OPTIMIZE      40 ORBITAL ROTATIONS, SOGTOL=   0.250
     MEMORY REQUIRED FOR RHF ITERS=     31728 WORDS.

 ITER EX DEM     TOTAL ENERGY        E CHANGE  DENSITY CHANGE     ORB. GRAD
   1  0  0     -149.5818478859  -149.5818478859   0.597640844   0.000000000
          ---------------START SECOND ORDER SCF---------------
   2  1  0     -149.8901606543    -0.3083127684   0.188040992   0.059188075
   3  2  0     -149.9141173687    -0.0239567144   0.083280448   0.016647356
   4  3  0     -149.9165216091    -0.0024042404   0.005241164   0.002639917
   5  4  0     -149.9165818276    -0.0000602185   0.002933065   0.000951381
   6  5  0     -149.9165912306    -0.0000094030   0.000028932   0.000014604
   7  6  0     -149.9165912325    -0.0000000019   0.000008936   0.000002899
   8  7  0     -149.9165912326    -0.0000000001   0.000002507   0.000000831

          -----------------
          DENSITY CONVERGED
          -----------------
     TIME TO FORM FOCK OPERATORS=       0.0 SECONDS (       0.0 SEC/ITER)
     TIME TO SOLVE SCF EQUATIONS=       0.0 SECONDS (       0.0 SEC/ITER)

 FINAL RHF ENERGY IS     -149.9165912326 AFTER   8 ITERATIONS

          ------------
          EIGENVECTORS
          ------------

                      1          2          3          4          5
                  -20.2538   -20.2515    -1.2875    -1.2701    -0.6392
                     A          A          A          A          A   
    1  H  1  S    0.000063  -0.005925   0.106645   0.115535   0.333930
    2  O  2  S   -0.009497   0.994084  -0.162336  -0.166032  -0.007217
    3  O  2  S   -0.000429   0.026572   0.579637   0.595142   0.035176
    4  O  2  X    0.000096  -0.000330  -0.012383  -0.001711   0.457707
    5  O  2  Y    0.000147  -0.002736  -0.055594  -0.058975   0.011108
    6  O  2  Z   -0.000079   0.003447   0.074293   0.072533   0.027618
    7  H  3  S    0.000822  -0.006163   0.117860   0.114856  -0.360613
    8  H  4  S   -0.005999   0.000124   0.109669  -0.113759   0.252051
    9  O  5  S    0.994089   0.009528  -0.162351   0.165903  -0.020680
   10  O  5  S    0.026552   0.000045   0.579832  -0.594913   0.097075
   11  O  5  X    0.002280   0.000143   0.052042  -0.046210   0.080807
   12  O  5  Y   -0.003331   0.000083  -0.073170   0.070361   0.264565
   13  O  5  Z    0.001710   0.000015   0.035106  -0.038688   0.248045
   14  H  6  S   -0.006111   0.000755   0.111858  -0.117587  -0.298661

                      6          7          8          9         10
                   -0.6148    -0.4737    -0.4502    -0.4043    -0.3918
                     A          A          A          A          A   
    1  H  1  S    0.277295   0.266194   0.138150   0.009580   0.017413
    2  O  2  S    0.001166   0.084421   0.062749  -0.001686  -0.001512
    3  O  2  S   -0.005878  -0.435987  -0.328479   0.009612   0.008167
    4  O  2  X    0.375582   0.051716  -0.105217   0.004739   0.087264
    5  O  2  Y   -0.017162  -0.296897  -0.388035   0.625983  -0.460634
    6  O  2  Z    0.019661   0.485050   0.353828   0.436690  -0.443847
    7  H  3  S   -0.273477   0.170706   0.218525  -0.021130  -0.026737
    8  H  4  S   -0.372088   0.183736  -0.199892  -0.018680   0.020459
    9  O  5  S   -0.015660   0.069803  -0.074259  -0.005292   0.005878
   10  O  5  S    0.074035  -0.359612   0.388267   0.028014  -0.031951
   11  O  5  X   -0.256737   0.285419  -0.246769   0.438014   0.613372
   12  O  5  Y   -0.269341  -0.353707   0.467508   0.155043   0.092420
   13  O  5  Z   -0.315700   0.179054  -0.263687  -0.443046  -0.448316
   14  H  6  S    0.334761   0.168904  -0.223274  -0.010364   0.018419

                     11         12         13         14
                    0.5254     0.6563     0.7070     0.8098
                     A          A          A          A   
    1  H  1  S    0.368688   0.914993   0.476590  -0.361170
    2  O  2  S    0.086303   0.090099   0.009757   0.041455
    3  O  2  S   -0.565299  -0.611427  -0.063142  -0.288108
    4  O  2  X    0.236938  -0.417381  -0.502328   0.700051
    5  O  2  Y    0.297238   0.333327   0.018037   0.139985
    6  O  2  Z   -0.383888  -0.423239  -0.091082  -0.124001
    7  H  3  S    0.604600   0.236213  -0.372357   0.931160
    8  H  4  S    0.416660  -0.600999   0.893205   0.104934
    9  O  5  S    0.091399  -0.073069   0.032950  -0.051123
   10  O  5  S   -0.597939   0.495826  -0.226195   0.359617
   11  O  5  X   -0.263265   0.265111  -0.407757  -0.112029
   12  O  5  Y    0.506321  -0.194938  -0.378045  -0.519606
   13  O  5  Z   -0.099982   0.281817  -0.612438  -0.223267
   14  H  6  S    0.598347  -0.331729  -0.446319  -0.857616
 ...... END OF RHF CALCULATION ......
 CPU     0: STEP CPU TIME=     0.00 TOTAL CPU TIME=        0.1 (    0.0 MIN)
 TOTAL WALL CLOCK TIME=        0.1 SECONDS, CPU UTILIZATION IS 100.00%

     ----------------------------------------------------------------
     PROPERTY VALUES FOR THE RHF   SELF-CONSISTENT FIELD WAVEFUNCTION
     ----------------------------------------------------------------

          -----------------
          ENERGY COMPONENTS
          -----------------

         WAVEFUNCTION NORMALIZATION =       1.0000000000

                ONE ELECTRON ENERGY =    -283.9497173657
                TWO ELECTRON ENERGY =      95.9380141585
           NUCLEAR REPULSION ENERGY =      38.0951119746
                                      ------------------
                       TOTAL ENERGY =    -149.9165912326

 ELECTRON-ELECTRON POTENTIAL ENERGY =      95.9380141585
  NUCLEUS-ELECTRON POTENTIAL ENERGY =    -433.1257774292
   NUCLEUS-NUCLEUS POTENTIAL ENERGY =      38.0951119746
                                      ------------------
             TOTAL POTENTIAL ENERGY =    -299.0926512962
               TOTAL KINETIC ENERGY =     149.1760600636
                 VIRIAL RATIO (V/T) =       2.0049641422

          ---------------------------------------
          MULLIKEN AND LOWDIN POPULATION ANALYSES
          ---------------------------------------

     ATOMIC MULLIKEN POPULATION IN EACH MOLECULAR ORBITAL

                      1          2          3          4          5

                  2.000000   2.000000   2.000000   2.000000   2.000000

    1            -0.000000  -0.000705   0.091234   0.100892   0.264590
    2             0.000184   2.001253   0.791514   0.814349   0.623656
    3             0.000005  -0.000734   0.118781   0.084477   0.317109
    4            -0.000714   0.000000   0.099474   0.093812   0.140246
    5             2.001252   0.000183   0.793915   0.812029   0.418129
    6            -0.000727   0.000003   0.105082   0.094441   0.236271
    7             0.000000   0.000000   0.000000   0.000000   0.000000
    8             0.000000   0.000000   0.000000   0.000000   0.000000
    9             0.000000   0.000000   0.000000   0.000000   0.000000
   10             0.000000   0.000000   0.000000   0.000000   0.000000
   11             0.000000   0.000000   0.000000   0.000000   0.000000
   12             0.000000   0.000000   0.000000   0.000000   0.000000
   13             0.000000   0.000000   0.000000   0.000000   0.000000
   14             0.000000   0.000000   0.000000   0.000000   0.000000

                      6          7          8          9         10

                  2.000000   2.000000   2.000000   2.000000   2.000000

    1             0.177120   0.147958   0.038561   0.000173   0.000603
    2             0.407830   0.954461   0.766357   1.169311   0.829765
    3             0.158297   0.069322   0.079487   0.000781   0.000968
    4             0.332087   0.073607   0.076645   0.000631   0.000722
    5             0.691664   0.690233   0.949091   0.828895   1.167413
    6             0.233002   0.064418   0.089859   0.000209   0.000529
    7             0.000000   0.000000   0.000000   0.000000   0.000000
    8             0.000000   0.000000   0.000000   0.000000   0.000000
    9             0.000000   0.000000   0.000000   0.000000   0.000000
   10             0.000000   0.000000   0.000000   0.000000   0.000000
   11             0.000000   0.000000   0.000000   0.000000   0.000000
   12             0.000000   0.000000   0.000000   0.000000   0.000000
   13             0.000000   0.000000   0.000000   0.000000   0.000000
   14             0.000000   0.000000   0.000000   0.000000   0.000000

               ----- POPULATIONS IN EACH AO -----
                             MULLIKEN      LOWDIN
              1  H  1  S      0.82043     0.87582
              2  O  2  S      1.99763     1.99608
              3  O  2  S      1.83330     1.68205
              4  O  2  X      1.07564     1.10730
              5  O  2  Y      1.78932     1.79523
              6  O  2  Z      1.66279     1.67149
              7  H  3  S      0.82849     0.87950
              8  H  4  S      0.81651     0.87273
              9  O  5  S      1.99764     1.99608
             10  O  5  S      1.83303     1.68138
             11  O  5  X      1.69411     1.70217
             12  O  5  Y      1.32013     1.34059
             13  O  5  Z      1.50789     1.52308
             14  H  6  S      0.82309     0.87651

          ----- MULLIKEN ATOMIC OVERLAP POPULATIONS -----
          (OFF-DIAGONAL ELEMENTS NEED TO BE MULTIPLIED BY 2)

             1           2           3           4           5

    1    0.6069953
    2    0.2617000   7.8388955
    3   -0.0485819   0.2622753   0.6200168
    4    0.0000327  -0.0002833  -0.0003727   0.6029324
    5    0.0001307  -0.0014398  -0.0031306   0.2640590   7.8291370
    6    0.0001501  -0.0024669  -0.0017138  -0.0498586   0.2640448
    7    0.0000000   0.0000000   0.0000000   0.0000000   0.0000000
    8    0.0000000   0.0000000   0.0000000   0.0000000   0.0000000
    9    0.0000000   0.0000000   0.0000000   0.0000000   0.0000000
   10    0.0000000   0.0000000   0.0000000   0.0000000   0.0000000
   11    0.0000000   0.0000000   0.0000000   0.0000000   0.0000000
   12    0.0000000   0.0000000   0.0000000   0.0000000   0.0000000
   13    0.0000000   0.0000000   0.0000000   0.0000000   0.0000000
   14    0.0000000   0.0000000   0.0000000   0.0000000   0.0000000

             6           7           8           9          10

    6    0.6129330
    7    0.0000000   0.0000000
    8    0.0000000   0.0000000   0.0000000
    9    0.0000000   0.0000000   0.0000000   0.0000000
   10    0.0000000   0.0000000   0.0000000   0.0000000   0.0000000
   11    0.0000000   0.0000000   0.0000000   0.0000000   0.0000000
   12    0.0000000   0.0000000   0.0000000   0.0000000   0.0000000
   13    0.0000000   0.0000000   0.0000000   0.0000000   0.0000000
   14    0.0000000   0.0000000   0.0000000   0.0000000   0.0000000

            11          12          13          14

   11    0.0000000
   12    0.0000000   0.0000000
   13    0.0000000   0.0000000   0.0000000
   14    0.0000000   0.0000000   0.0000000   0.0000000

          TOTAL MULLIKEN AND LOWDIN ATOMIC POPULATIONS
       ATOM         MULL.POP.    CHARGE          LOW.POP.     CHARGE
    1 H             0.820427    0.179573         0.875818    0.124182
    2 O             8.358681   -0.358681         8.252146   -0.252146
    3 H             0.828493    0.171507         0.879497    0.120503
    4 H             0.816510    0.183490         0.872725    0.127275
    5 O             8.352801   -0.352801         8.243299   -0.243299
    6 H             0.823089    0.176911         0.876515    0.123485
    7 XX            0.000000    0.000000         0.000000    0.000000
    8 XX            0.000000    0.000000         0.000000    0.000000
    9 XX            0.000000    0.000000         0.000000    0.000000
   10 XX            0.000000    0.000000         0.000000    0.000000
   11 XX            0.000000    0.000000         0.000000    0.000000
   12 XX            0.000000    0.000000         0.000000    0.000000
   13 XX            0.000000    0.000000         0.000000    0.000000
   14 XX            0.000000    0.000000         0.000000    0.000000

          -------------------------------
          BOND ORDER AND VALENCE ANALYSIS     BOND ORDER THRESHOLD=0.050
          -------------------------------

                   BOND                       BOND                       BOND
  ATOM PAIR DIST  ORDER      ATOM PAIR DIST  ORDER      ATOM PAIR DIST  ORDER
    1   2  0.960  0.956        2   3  0.960  0.947        4   5  0.960  0.952
    5   6  0.960  0.951

                       TOTAL       BONDED        FREE
      ATOM            VALENCE     VALENCE     VALENCE
    1 H                 0.968       0.968      -0.000
    2 O                 1.914       1.914      -0.000
    3 H                 0.971       0.971      -0.000
    4 H                 0.966       0.966       0.000
    5 O                 1.921       1.921       0.000
    6 H                 0.969       0.969       0.000
    7 XX                0.000       0.000       0.000
    8 XX                0.000       0.000       0.000
    9 XX                0.000       0.000       0.000
   10 XX                0.000       0.000       0.000
   11 XX                0.000       0.000       0.000
   12 XX                0.000       0.000       0.000
   13 XX                0.000       0.000       0.000
   14 XX                0.000       0.000       0.000

          ---------------------
          ELECTROSTATIC MOMENTS
          ---------------------

 POINT   1           X           Y           Z (BOHR)    CHARGE
                -3.434527    0.674973    0.669572       -0.00 (A.U.)
         DX          DY          DZ         /D/  (DEBYE)
     0.751065   -2.292184    2.044405    3.161930
 ...... END OF PROPERTY EVALUATION ......
 CPU     0: STEP CPU TIME=     0.05 TOTAL CPU TIME=        0.1 (    0.0 MIN)
 TOTAL WALL CLOCK TIME=        0.1 SECONDS, CPU UTILIZATION IS  92.86%
               580000  WORDS OF DYNAMIC MEMORY USED
 EXECUTION OF GAMESS TERMINATED NORMALLY Mon Jan 19 09:12:18 2015
 DDI: 263624 bytes (0.3 MB / 0 MWords) used by master data server.

 ----------------------------------------
 CPU timing information for all processes
 ========================================
 0: 0.76 + 0.66 = 0.142
 1: 0.61 + 0.62 = 0.124
 2: 0.61 + 0.62 = 0.124
 3: 0.60 + 0.64 = 0.124
 4: 0.66 + 0.60 = 0.127
 5: 0.64 + 0.56 = 0.121
 6: 0.63 + 0.59 = 0.123
 7: 0.63 + 0.59 = 0.122
 ----------------------------------------
 ddikick.x: exited gracefully.
----- accounting info -----
Files used on the master node danian were:
-rw-rw-r-- 1 danian danian    5559 ene 19 09:12 /home/scratch/gamess/danian/anneal.dat
-rw-rw-r-- 1 danian danian    1243 ene 19 09:12 /home/scratch/gamess/danian/anneal.F05
-rw-rw-r-- 1 danian danian  180016 ene 19 09:12 /home/scratch/gamess/danian/anneal.F08
-rw-rw-r-- 1 danian danian  180016 ene 19 09:12 /home/scratch/gamess/danian/anneal.F08.001
-rw-rw-r-- 1 danian danian  180016 ene 19 09:12 /home/scratch/gamess/danian/anneal.F08.002
-rw-rw-r-- 1 danian danian  180016 ene 19 09:12 /home/scratch/gamess/danian/anneal.F08.003
-rw-rw-r-- 1 danian danian  180016 ene 19 09:12 /home/scratch/gamess/danian/anneal.F08.004
-rw-rw-r-- 1 danian danian  180016 ene 19 09:12 /home/scratch/gamess/danian/anneal.F08.005
-rw-rw-r-- 1 danian danian  180016 ene 19 09:12 /home/scratch/gamess/danian/anneal.F08.006
-rw-rw-r-- 1 danian danian  180016 ene 19 09:12 /home/scratch/gamess/danian/anneal.F08.007
-rw-rw-r-- 1 danian danian 1537840 ene 19 09:12 /home/scratch/gamess/danian/anneal.F10
lun ene 19 09:12:21 COT 2015
0.0u 0.0s 0:03.22 1.5% 0+0k 0+16io 0pf+0w
