           6
 Configuration:    1  Energy(u.a.)=      0.00000000
  H    1     0.000000    0.753010   -0.475986
  O    8     0.000000    0.000000    0.118997
  H    1     0.000000   -0.753010   -0.475986
  H    1     0.000000    0.753010   -0.475986
  O    8     0.000000    0.000000    0.118997
  H    1     0.000000   -0.753010   -0.475986
           6
 Configuration:    2  Energy(u.a.)=   -149.09127248
  H    1    -0.326647    1.525353   -0.586549
  O    8    -0.577679    0.715972   -0.136089
  H    1    -1.294003    0.374551   -0.675849
  H    1     0.060011    0.159593   -0.184282
  O    8    -0.483611   -0.629627   -0.132941
  H    1    -1.114255   -0.511573   -0.846650
           6
 Configuration:    3  Energy(u.a.)=   -149.92309456
  H    1     0.944488    1.366117   -0.599576
  O    8     0.113489    1.068397   -0.222971
  H    1    -0.360212    0.717268   -0.980167
  H    1    -0.696284   -1.300571   -0.472746
  O    8    -1.471701   -1.349153    0.090634
  H    1    -2.158995   -0.943302   -0.442228
           6
 Configuration:    5  Energy(u.a.)=   -149.93005613
  H    1    -0.134105    0.660924   -1.267057
  O    8     0.110820   -0.005403   -0.621263
  H    1    -0.142714   -0.828546   -1.044565
  H    1    -1.550922   -0.901583    1.388433
  O    8    -2.380031   -0.428558    1.289160
  H    1    -2.101574    0.471419    1.106040
           6
 Configuration:    7  Energy(u.a.)=   -149.93023001
  H    1     0.421771    0.623127   -1.034742
  O    8    -0.015876   -0.017802   -0.470203
  H    1    -0.422769   -0.622367   -1.094676
  H    1    -2.086350   -0.168445    0.039508
  O    8    -2.874939    0.361202    0.176004
  H    1    -2.525781    1.214984    0.440908
           6
 Configuration:   48  Energy(u.a.)=   -149.93027755
  H    1    -1.334410   -0.143279    0.389085
  O    8    -1.808633   -0.796241   -0.130319
  H    1    -2.397304   -1.203459    0.508953
  H    1    -1.293765    2.240710    1.331180
  O    8    -0.974077    2.076916    0.441237
  H    1    -1.618046    2.524604   -0.111852
