6
converged SCF energy = -149.191421653375
H    0.7880090806623168    0.0    0.5467586374773117
O    0.0    0.0    -0.06890153619829288
H    -0.7880090806623168    0.0    0.5467586374773117
H    1.3171852063522302    0.5291761256899133    1.0759347631672251
O    0.5291761256899133    0.5291761256899133    0.46027458949162053
H    -0.25883295497240355    0.5291761256899133    1.0759347631672251
6
SCF not converged.
SCF energy = -149.176046113814
H    0.591715036141324    -0.19871368540111325    0.3598337990822652
O    -0.200321179733825    -0.1994128621786685    -0.25063643323914164
H    -0.9842405709446159    -0.208228687264231    0.37016017593999045
H    1.138696329413447    0.3489125563853849    0.8894823476125825
O    0.3470252659322829    0.3478511962815339    0.2785391739721216
H    -0.43726520782135364    0.3394093790383893    0.898872108094981
6
converged SCF energy = -149.142173324822
H    0.7621411331169438    0.00666300818043114    0.5915442294081771
O    -0.025668777195617987    0.008336486111608152    -0.024368512253717108
H    -0.8138753503295182    0.008906443791611526    0.5910385350518048
H    1.3608889435536964    0.5733676803030501    1.1216608618713044
O    0.5738133967453821    0.5736109876892054    0.5048077309929283
H    -0.2151258152946798    0.5756080893148697    1.1192722881052561
6
converged SCF energy = -149.159997695696
H    0.82402021532871    0.1645852695778816    0.7752805581342606
O    0.03952403993319123    0.169597892574629    0.1551705799392317
H    -0.7519303285722955    0.1761419837736104    0.7663603361528845
H    1.538292171995237    0.6888896827149477    1.3042502333944437
O    0.7536164657628456    0.6901229247301214    0.684348405828678
H    -0.03766076035291456    0.7004120720936144    1.2957159266650624
6
converged SCF energy = -148.991948090388
H    0.5881638614073306    0.021624557589052986    0.6478416160762561
O    -0.19923898418504682    0.028283441752618398    0.03144224986043502
H    -0.9878452067135048    0.02676202280843545    0.6463354696395571
H    1.7889839380806194    0.5005950242749335    1.5468238303342658
O    1.0005492893520944    0.5032116931189149    0.9317143129432284
H    0.21315476721582732    0.5249827875833676    1.547775711354268
6
converged SCF energy = -148.921895975578
H    0.7982370295862291    -0.20645655993642711    0.8434794395349422
O    0.0063124617921168835    -0.19871506386866744    0.2329130559047224
H    -0.7776703737293413    -0.19077741101532344    0.8536413925637292
H    1.8276824198292994    0.7584160956597651    1.5969068366911796
O    1.044518231317785    0.7612711932166017    0.9751018327650388
H    0.25193877406667875    0.7850408065193087    1.5844035397079355
6
converged SCF energy = -148.919420125586
H    0.9909973795231278    -0.3541726106631656    0.5803268157819255
O    0.19586768738304944    -0.3569952794811949    -0.02610254191319074
H    -0.5849122022815355    -0.35184186440999077    0.5986789933973576
H    1.935309036824518    1.0017875813550297    1.6303927179070012
O    1.1571358285593938    1.0030247538152877    1.0023475857714093
H    0.3597399370364342    1.0297348004986058    1.6052092002776124
6
converged SCF energy = -148.919147315984
H    0.9506432537944556    -0.5059898546966245    0.3171767029071716
O    0.15242038257830456    -0.514749119342776    -0.2851183110244115
H    -0.6251118353246765    -0.517159772949716    0.34371680212417977
H    2.042887124231727    1.2451860220463753    1.6638378579258566
O    1.2697530896959632    1.2447778808784051    1.0295986611555952
H    0.4675949642613795    1.2744087205686903    1.625971125136847
6
converged SCF energy = -148.919138043559
H    0.9048481918134571    -0.3525972333834953    0.062044275036436836
O    0.10966573132021362    -0.36731377479352717    -0.5441438464154613
H    -0.6708643456997334    -0.37725508420610027    0.0808919364729604
H    2.150417033017962    1.4886113091144402    1.6972417713708243
O    1.3823699718665254    1.4865305943732645    1.0568550576272036
H    0.5755041850647931    1.5190623584272909    1.646689820143708
6
converged SCF energy = -148.919124794383
H    0.8592171503167809    -0.21160866626090943    0.2792453112287377
O    0.06690616502558928    -0.21986277273294946    -0.33081282777917054
H    -0.7167028649822299    -0.22519485766455194    0.2904151638768958
H    2.257899117915578    1.7320633318417298    1.7306039760869754
O    1.4949864322397288    1.7282829142994987    1.0841167734799808
H    0.6834679245345471    1.7636955073572573    1.667365794534819
6
converged SCF energy = -148.919109667484
H    0.8135226705934694    -0.07060755139200182    0.49642473209801286
O    0.024147333071049763    -0.07241411335696996    -0.11748004349977928
H    -0.7624896015014018    -0.07310999572360405    0.4999319822745255
H    2.3566053691947038    1.9753739236029138    1.76392484917009
O    1.5988740598173687    1.9700546597968562    1.1113831042384583
H    0.7827581352978817    2.008161764125948    1.6880098526658116
6
converged SCF energy = -148.919128108333
H    0.7677649482956347    0.07040658841846827    0.7135822485295903
O    -0.018610789634179732    0.07503219571345485    0.0958545065517551
H    -0.8082243526679861    0.07899914538150514    0.7094426787323559
H    2.461609846082862    1.8902056765178625    1.7889758840587655
O    1.7020161945516705    1.8833503450922933    1.138617329382113
H    0.887582600611475    1.924163566737967    1.7174333300741338
6
converged SCF energy = -148.919154857491
H    0.7219441838308464    0.21143422938634515    0.9307175730558784
O    -0.06136822823420525    0.22247614703409715    0.30919082237169976
H    -0.8539069198017024    0.2311322075898917    0.9189475407772256
H    2.566583899761113    1.8086630428488135    1.669510992493356
O    1.805170805405767    1.7966608529321582    1.021358380959645
H    0.9922394678645484    1.8363044921559113    1.6023633576759297
6
converged SCF energy = -148.919154857491
H    0.7219441838308464    0.21143422938634515    0.9307175730558784
O    -0.06136822823420525    0.22247614703409715    0.30919082237169976
H    -0.8539069198017024    0.2311322075898917    0.9189475407772256
H    2.566583899761113    1.8086630428488135    1.669510992493356
O    1.805170805405767    1.7966608529321582    1.021358380959645
H    0.9922394678645484    1.8363044921559113    1.6023633576759297
6
converged SCF energy = -148.919154857492
H    0.7219441891226076    0.21143422948279766    0.9307175730577822
O    -0.061368222942444    0.22247614702207283    0.3091908223716765
H    -0.8539069145099412    0.23113220768429    0.9189475407756915
H    2.566583899761113    1.8086630428488135    1.669510992493356
O    1.805170805405767    1.7966608529321582    1.021358380959645
H    0.9922394678645484    1.8363044921559113    1.6023633576759297
6
converged SCF energy = -148.919154857493
H    0.7219441890261551    0.21143423477455894    0.9307175731945863
O    -0.061368222930419644    0.22247615231383408    0.3091908223717666
H    -0.8539069146043394    0.23113221297605124    0.9189475406374576
H    2.566583899761113    1.8086630428488135    1.669510992493356
O    1.805170805405767    1.7966608529321582    1.021358380959645
H    0.9922394678645484    1.8363044921559113    1.6023633576759297
6
converged SCF energy = -148.919154857493
H    0.7219441890242512    0.21143423463775504    0.9307175784863474
O    -0.06136822293039634    0.22247615231374399    0.3091908276635279
H    -0.8539069146028053    0.23113221311428522    0.9189475459292189
H    2.566583899761113    1.8086630428488135    1.669510992493356
O    1.805170805405767    1.7966608529321582    1.021358380959645
H    0.9922394678645484    1.8363044921559113    1.6023633576759297
6
converged SCF energy = -148.919154857492
H    0.7219441890242512    0.21143423463775504    0.9307175784863474
O    -0.06136822293039634    0.22247615231374399    0.3091908276635279
H    -0.8539069146028053    0.23113221311428522    0.918947545929219
H    2.566583905052874    1.808663042949934    1.6695109924917655
O    1.8051708106975282    1.7966608529201544    1.0213583809601494
H    0.9922394731563097    1.8363044922453122    1.602363357669515
6
converged SCF energy = -148.919154857491
H    0.7219441890242512    0.21143423463775504    0.9307175784863474
O    -0.06136822293039634    0.22247615231374399    0.3091908276635279
H    -0.8539069146028053    0.23113221311428522    0.918947545929219
H    2.566583904951754    1.808663048241695    1.6695109926251603
O    1.8051708107095317    1.7966608582119157    1.0213583809606526
H    0.9922394730669087    1.8363044975370735    1.6023633575281349
6
converged SCF energy = -148.919154857491
H    0.7219441890242512    0.21143423463775504    0.9307175784863474
O    -0.06136822293039634    0.22247615231374399    0.3091908276635279
H    -0.8539069146028053    0.23113221311428522    0.918947545929219
H    2.5665839049533443    1.8086630481083004    1.6695109979169216
O    1.8051708107090274    1.7966608582114125    1.0213583862524136
H    0.9922394730733235    1.8363044976784535    1.602363362819896
6
converged SCF energy = -148.919154883405
H    0.7219825350995034    0.2115538056203816    0.9308365512317053
O    -0.06132733735764085    0.22259788279835846    0.309306638253254
H    -0.8538684459725894    0.23125778745064066    0.919060160476245
H    2.566669404449671    1.8086766425430538    1.669514283471986
O    1.8052565662288063    1.7966726955348338    1.0213614035854433
H    0.9923250019591002    1.8363180584429466    1.6023659454527523
6
converged SCF energy = -148.919154909338
H    0.7220208864451952    0.2116733767123401    0.9309555239728968
O    -0.06128644649349171    0.22271961326989184    0.3094224488441974
H    -0.8538299720234562    0.23138336188528763    0.9191727750081166
H    2.566754903946043    1.8086902369786149    1.6695175690225423
O    1.805342321748562    1.796684532858279    1.0213644209190342
H    0.9924105308451976    1.8363316192062566    1.602368528081207
6
converged SCF energy = -148.91915493529
H    0.7220592323813503    0.21179295301248485    0.9310744968429152
O    -0.061245560909447126    0.2228413490441541    0.3095382594364948
H    -0.853791503433324    0.23150894152119278    0.9192853893896695
H    2.56684040344246    1.8087038314149833    1.6695208545685898
O    1.8054280772682947    1.7966963701817478    1.0213674382531868
H    0.9924960597316154    1.8363451799683836    1.6023711107052598
6
converged SCF energy = -148.919154961258
H    0.722097578390732    0.21191252389694445    0.9311934748618205
O    -0.06120467533777127    0.22296307952550803    0.3096540753217039
H    -0.8537530347201017    0.23163451600746623    0.9193980091875994
H    2.5669259029389213    1.8087174258521592    1.669524140110129
O    1.8055138327880045    1.79670820750524    1.0213704555879004
H    0.9925815886183537    1.8363587407293278    1.6023736933249113
6
converged SCF energy = -148.919154987244
H    0.7221359243806976    0.21203209493108538    0.9313124475828933
O    -0.06116378976648629    0.2230848100058955    0.30976988591639226
H    -0.8537145659812589    0.2317600903593986    0.9195106236801495
H    2.567011407727189    1.8087310203912632    1.6695274256455683
O    1.8055995935994524    1.7967200448167526    1.02137347292368
H    0.9926671227971735    1.8363723015784892    1.6023762759337452
6
converged SCF energy = -148.919155013247
H    0.7221742703493417    0.2121516659781049    0.9314314202978948
O    -0.06112290419556894    0.22320654048522626    0.3098856965123211
H    -0.8536760972152599    0.23188566471522487    0.9196232381590811
H    2.5670969071226195    1.8087446201218156    1.6695307113114848
O    1.8056853491311196    1.7967318874320537    1.0213764902600198
H    0.9927526515951522    1.836385867628828    1.602378858403213
6
converged SCF energy = -148.919155039269
