6
converged SCF energy = -149.191421653375
H    0.7880090806623168    0.0    0.5467586374773117
O    0.0    0.0    -0.06890153619829288
H    -0.7880090806623168    0.0    0.5467586374773117
H    1.3171852063522302    0.5291761256899133    1.0759347631672251
O    0.5291761256899133    0.5291761256899133    0.46027458949162053
H    -0.25883295497240355    0.5291761256899133    1.0759347631672251
6
converged SCF energy = -149.145685853399
H    0.6771124032015805    -0.17429537117620558    0.36531430082805694
O    -0.11446095603298857    -0.1765930075818178    -0.24575206093111657
H    -0.8988521375564149    -0.183522655897519    0.37447226540496736
H    1.1423787345880894    0.41490948087484786    0.9589154637511663
O    0.35206476032623746    0.41551890093855187    0.34621716005662423
H    -0.43361712322648355    0.40894619411170136    0.9648095444573398
6
converged SCF energy = -149.044612295842
H    0.44207356609021525    -0.4232204959078308    0.10754421571060499
O    -0.35449010109406354    -0.42730325388613044    -0.4969931411713086
H    -1.1336304051803174    -0.44568171711660864    0.1295835734408859
H    0.8944786464427237    0.2268966433624382    0.7655569202737963
O    0.10038308159440426    0.22763028354793657    0.15776793031358535
H    -0.6813826224128828    0.21100811480685028    0.7811152237230296
6
converged SCF energy = -149.018103868404
H    0.5995763878809547    -0.2777494477091976    0.3287091219257335
O    -0.19402916550258795    -0.27933676891286313    -0.27971792111783744
H    -0.9763370465873044    -0.2888422121559003    0.34309809216220005
H    1.107971896799525    0.43639019052245553    0.9822085462531851
O    0.31815196790928113    0.4382577832733021    0.3688760485965924
H    -0.4680319304882316    0.43150773220015853    0.9868283731067808
6
converged SCF energy = -148.968599319141
H    0.4340776560978567    -0.19203975478231744    0.49294560876308596
O    -0.35765769313403717    -0.18609031736893888    -0.11788620248094293
H    -1.1419092189058726    -0.19477263186038304    0.5024926514431449
H    0.9111367576458792    0.5844905818977476    1.1418731034850143
O    0.12449613739888998    0.5943635576209906    0.5245443259407082
H    -0.6648743132310432    0.5877216753235827    1.1384221132309715
6
converged SCF energy = -148.905012529385
H    0.34098308242128866    -0.18109211863509356    0.7263705477209568
O    -0.4503065675138222    -0.1671902945187023    0.11509058743405796
H    -1.2349838508829016    -0.17174148114911153    0.7349749381974255
H    0.7841175163275775    0.8069382177807211    1.2291731044142398
O    0.002146218123477939    0.8214504837218384    0.6060310310643524
H    -0.791809269840351    0.8144662881359874    1.213963317425821
6
converged SCF energy = -149.027715652567
H    0.1327900767244062    0.05646030665565155    0.8545432256736988
O    -0.6534837958254166    0.07769420713885151    0.2370334852871035
H    -1.443144663179863    0.07217605819561429    0.8505487868548874
H    0.8884585917708052    0.7379078451093046    1.005252632492111
O    0.10482948872601232    0.7445876429369712    0.38406299170699426
H    -0.6875144848975024    0.7338607346399073    0.9940398122153076
6
converged SCF energy = -149.205587441283
H    0.15108395429017718    0.29813555942109127    0.9828168775891752
O    -0.630094637671207    0.32206171738952505    0.3589712980723811
H    -1.4246914321101296    0.32017646998496857    0.9661023718663008
H    0.9927390112398651    0.6688813683033499    0.7813027581010735
O    0.20751442702468564    0.667723454504534    0.16209619140763112
H    -0.5831855136933104    0.6532726751726848    0.774126043115704
6
converged SCF energy = -149.127080572178
H    0.17839040617749546    0.04396964076466365    1.0982685221382273
O    -0.6078321632048526    0.07057242146354617    0.4809014318998081
H    -1.3973680250425042    0.07234484245721175    1.0945998448459746
H    1.0969586737175092    0.5998582439595057    0.5573236231710845
O    0.31020104596696657    0.5908579348664438    -0.05986936955413723
H    -0.4788224607130576    0.5727023921711701    0.5542218637592392
6
converged SCF energy = -148.982201792176
H    0.20563318072030284    -0.21018414900394933    1.2123347639549582
O    -0.5855699885578245    -0.18091459185032377    0.6014856838993158
H    -1.3699761818908827    -0.17553514363210096    1.221706407556753
H    1.2011174825263424    0.5308379284349556    0.33331537172217107
O    0.41288935838027585    0.5139911005597055    -0.28183369098723643
H    -0.3744254328764777    0.492150166802446    0.33432712709315
6
converged SCF energy = -148.923671802604
H    0.2328108996074533    -0.4643604099914879    1.3263667709077553
O    -0.5633080012098938    -0.4323993515170176    0.7220746667403105
H    -1.3425163102678708    -0.42342842844412576    1.3487721171027443
H    1.2470287875600872    0.4607754941993883    0.10932463075753766
O    0.4573928191954295    0.43725518729039664    -0.5037965589629482
H    -0.3281810973057585    0.41056207832149294    0.11439181063252077
6
converged SCF energy = -148.919574747467
H    0.25992319232294264    -0.7185589086486547    1.4403651011321958
O    -0.5410461529589177    -0.6838818532472035    0.8426683800403195
H    -1.3149888047230214    -0.6713353136085346    1.4757964214189887
H    1.2916526380531113    0.45961875643085237    -0.11288368823288654
O    0.5020535873940557    0.42941519712417414    -0.7257595687014151
H    -0.2831460937302079    0.3978831469169156    -0.10732367774049452
6
converged SCF energy = -148.919209889448
H    0.286969693923717    -0.9727794095319647    1.5543303156324138
O    -0.5187843955909054    -0.9353620929438793    0.9632668230139331
H    -1.2873940655668905    -0.9192560995965324    1.6027787719673907
H    1.3361991265385869    0.4590930520597989    -0.3593855721047852
O    0.5467150535221356    0.42157487388516224    -0.9720053933776195
H    -0.2380448057000174    0.3845784686541004    -0.3533140405932511
6
converged SCF energy = -148.919199485736
H    0.30540955722991986    -0.7311930288172054    1.6827555189991907
O    -0.49539657246398655    -0.6909854543938321    1.0851865654380113
H    -1.2690656306526444    -0.6713117003414981    1.7184676187307102
H    1.4401414959134717    0.39007338314989937    -0.5834941391864668
O    0.6494073377254664    0.3447051921513971    -1.1939668895830577
H    -0.13349437877527756    0.3040707911002923    -0.5731533037072711
6
converged SCF energy = -148.919174078572
H    0.3237858887052775    -0.48958411762219417    1.811147164877289
O    -0.47200881787408816    -0.4466110755645631    1.2071108552955532
H    -1.250672481511849    -0.4233539652247194    1.8341178460104954
H    1.5440226674946054    0.32105405622559446    -0.8076311255537908
O    0.7521013559731834    0.2678342510997273    -1.4159271467121608
H    -0.02891027685056995    0.2235827594846559    -0.7929838141847454
6
converged SCF energy = -148.919153461948
H    0.34209904137662617    -0.24795244115620935    1.9395047258720968
O    -0.44862118813582474    -0.20223894740124873    1.3290396934705342
H    -1.2322142664934044    -0.1753831781808128    1.9497299671708868
H    1.6478425687828904    0.25203452737281934    -1.0317963759114515
O    0.8547971205641772    0.19096206765440754    -1.6378861649527054
H    0.0757073773649157    0.14311464909908353    -1.012805724340582
6
converged SCF energy = -148.919137567316
H    0.3603493895809966    -0.006297782220912799    2.0678276822731263
O    -0.4252337237145485    0.04213092342392518    1.4509730857667915
H    -1.2136906230928248    0.07260036034401048    2.065304504378208
H    1.7516011316557476    0.18301425269193272    -1.2559897329452547
O    0.9574946436725981    0.11408865882843619    -1.8598439445809616
H    0.18035845876535972    0.06266673381250028    -1.2326191871040073
6
converged SCF energy = -148.919125283552
H    0.3785373072384509    0.23538009069884125    2.1961155017302016
O    -0.40184647031839904    0.2864985463099662    1.5729110217410227
H    -1.1951011997494931    0.32059636422781623    2.1808419665900174
H    1.8552982976637422    0.11399268842954348    -1.4802110373465438
O    1.0601939426387468    0.03721404171031898    -2.0818004859614603
H    0.2850428451490105    -0.017760713850872713    -1.4524243559978343
6
converged SCF energy = -148.919116019713
H    0.3966631734392701    0.47708140151639417    2.3243676705001346
O    -0.3784594736497437    0.5308639255479434    1.694853506453713
H    -1.1764456501646272    0.5686045414493128    2.2963428818038447
H    1.9589339967747528    0.04496929593763792    -1.7044601276324312
O    1.1628950188132787    -0.03966176119730591    -2.3037557895480023
H    0.38976039596138806    -0.09816741783094717    -1.672221385302218
6
converged SCF energy = -148.919109169956
H    0.4147273723513114    0.7188063723680808    2.452583672460737
O    -0.3550727793901586    0.7752270656121686    1.8168005393019413
H    -1.1577236334470198    0.8166245988557795    2.4118077757114533
H    2.062508179517303    -0.024056479037322363    -1.9287368354979206
O    1.265597889258314    -0.11653874321775866    -2.525709850589844
H    0.49451098443807895    -0.1785531189955724    -1.8920104241515803
6
converged SCF energy = -148.91910892565
H    0.15551276548435758    0.45606778465845704    2.180788748202405
O    -0.6202692866270141    0.5112560641833048    1.5522092209494847
H    -1.4180279083949925    0.540393047387323    2.154478245772423
H    1.8016759918813665    -0.2862579673319884    -2.1994466116585216
O    1.000423901094529    -0.38053850493713126    -2.7902951776169695
H    0.2354668669951451    -0.45486528586325986    -2.1505201966466454
6
converged SCF energy = -148.919108669833
H    -0.10378127512035557    0.19343924256640185    1.9089641736238436
O    -0.8854711552502111    0.24727968800769426    1.2876285973095596
H    -1.6781675589790543    0.26413675840963435    1.8970086194216826
H    1.5407692711433547    -0.548373159103198    -2.470167401428185
O    0.7352448477894121    -0.6445434932426514    -3.054870258329322
H    -0.023422323301890716    -0.7311807927546273    -2.4091815852846907
6
converged SCF energy = -148.91910840258
H    -0.3631559731170992    -0.06907969777938264    1.637111606887957
O    -1.150678255193647    -0.016702197749621166    1.0230586666782981
H    -1.9381436151061877    -0.01214158952784165    1.6393972655401643
H    1.2797871738274924    -0.8104026209396529    -2.7408977996654036
O    0.4700608647517681    -0.9085538417294143    -3.3194350957013903
H    -0.28215789218903464    -1.0074969526564421    -2.6679959479960504
6
converged SCF energy = -148.919108123975
H    -0.6226125175247648    -0.33148952108295904    1.3652327174758103
O    -1.4158904393543306    -0.28068974257125495    0.7584994301926127
H    -2.197957128005188    -0.28843932827840807    1.3816425911761854
H    1.0187288737284232    -1.0723469390726532    -3.0116363990271617
O    0.2048720885199118    -1.1725696827643808    -3.5839896950546377
H    -0.540741180600308    -1.2838110784058525    -2.9269646076613633
6
converged SCF energy = -148.919107834113
H    -0.8821520841664392    -0.5937907208589649    1.0933291654302246
O    -1.6811075647213707    -0.5446830787573337    0.4939508706655539
H    -2.4576091917252416    -0.5647537698821847    1.1237430199296268
H    0.757593567392271    -1.3342067191549638    -3.282381790309462
O    -0.06032133797785588    -1.4365911474680466    -3.8485340640564867
H    -0.7991735590687502    -1.5601204832024553    -3.186088851787116
6
converged SCF energy = -148.919107533101
H    -1.1417758297713962    -0.8559838212150592    0.8214026321811041
O    -1.946329487162355    -0.8086823425727067    0.22941298433781124
H    -2.7171009372101502    -0.8410822274325805    0.8656970246129339
H    0.49638045304840894    -1.5959825811786161    -3.553132562554577
O    -0.32551928660973395    -1.7006183603446399    -4.11306821271872
H    -1.0574564486836955    -1.8364224763456682    -3.4453699324237674
6
converged SCF energy = -148.919107221052
H    -1.401484891772998    -1.1180693708893874    0.5494547991320865
O    -2.2115560614462244    -1.0726876689240747    -0.03511424028714986
H    -2.976433532137383    -1.117422010949084    0.6075031062957388
H    0.23508876290739977    -1.857675180117725    -3.8238872987642245
O    -0.5907216123696193    -1.9646514604904517    -4.377592148100936
H    -1.3155912886215453    -2.1127143842706975    -3.7048090599450165
6
converged SCF energy = -148.919103712965
H    -1.4750967294731887    -1.0432392824157122    0.5453480078936579
O    -2.283710905390858    -0.9966195147230776    -0.04113768879622648
H    -3.0501858554383494    -1.0430341935762473    0.5994539043371838
H    0.21764066734364973    -1.9904500277689599    -4.063647651119036
O    -0.6098389711659246    -2.103512196618769    -4.61363870057674
H    -1.3304450083887958    -2.257633429650916    -3.937643622707719
6
converged SCF energy = -148.919100910165
H    -1.548713157709019    -0.9684140254823597    0.5412354215860253
O    -2.355865792338499    -0.9205513425959472    -0.04716031994695882
H    -3.1239328110844427    -0.9686418291871041    0.5913975243167318
H    0.20012826415342833    -2.123212361404852    -4.3034100954936845
O    -0.6289561758104922    -2.242375535769774    -4.849683735660893
H    -1.3452368672296249    -2.402523673808418    -4.170500177526991
6
converged SCF energy = -148.919098666734
H    -1.6223341716718416    -0.8935935820282164    0.5371170173385297
O    -2.4280207349103486    -0.8444831491860825    -0.0531821338208868
H    -3.1976743927092515    -0.8942448945443305    0.5833339903992453
H    0.18255144894452863    -2.2559626810016327    -4.543174329467006
O    -0.6480731990929223    -2.3812414776034556    -5.085727255780379
H    -1.3599671926359427    -2.5473846221636074    -4.403378988302856
6
converged SCF energy = -148.919096864948
H    -1.6959597503574433    -0.8187779496770907    0.5329927772425019
O    -2.500175729886715    -0.7684149470479567    -0.05920312521925841
H    -3.271410577845554    -0.8198433819081943    0.5752633325531602
H    0.16491012260688598    -2.3887014875207506    -4.782940050471076
O    -0.6671900138176873    -2.520110021566371    -5.321769263486417
H    -1.3746363171457419    -2.692215782539304    -4.636280317110226
6
converged SCF energy = -148.919095411463
H    -1.7695898782483745    -0.7439671097900823    0.5288626679988235
O    -2.572330779305981    -0.6923467328500021    -0.06522330482862217
H    -3.345141349657519    -0.7454372682218262    0.5671855645457814
H    0.14720419661246695    -2.521429282786349    -5.022706955840432
O    -0.6863065875146017    -2.6589811669036383    -5.557809761454649
H    -1.3892445730240661    -2.8370166650928734    -4.869204424146733
6
converged SCF energy = -148.919094233011
H    -1.8432245397046902    -0.6691610493833798    0.5247266721131557
O    -2.6444858852149644    -0.6162785085514997    -0.07124266746965956
H    -3.418866691297971    -0.6710265353712908    0.5591007162396645
H    0.12943357177438963    -2.65414656447819    -5.262474742594845
O    -0.7054229035960594    -2.7978549073194348    -5.793848752484676
H    -1.4037923135118757    -2.9817867774975086    -5.102151567957247
6
converged SCF energy = -148.919093272357
H    -1.9168637190244544    -0.5943597552755697    0.5205847668700156
O    -2.7166410496607685    -0.5402102761122027    -0.07726121326461384
H    -3.492586585977156    -0.5966111654327468    0.5510088122905402
H    0.11159817035738094    -2.786853846913393    -5.502243102896323
O    -0.7245389296563697    -2.936731252214401    -6.029886234205144
H    -1.4182798806433126    -3.126525645377872    -5.335121999443462
6
converged SCF energy = -148.919092297542
H    -1.9275260660038773    -0.4053499286258771    0.6071846509013916
O    -2.723367123042689    -0.3489058772629439    0.004319125552966988
H    -3.5034098699690674    -0.40336612702376035    0.6276674670283312
H    0.1764004970296697    -2.875957216735017    -5.7316212529833495
O    -0.6602649668996764    -3.0331908804109347    -6.25627755679708
H    -1.3503601585815252    -3.226677191883417    -5.558905751841569
6
converged SCF energy = -148.919091540545
H    -1.9382260799475215    -0.21633189257686683    0.6937618626094655
O    -2.730093113872398    -0.15760268741665628    0.08590230506281116
H    -3.514196702692944    -0.2101101086901482    0.7043037065541852
H    0.2411399978807979    -2.965064911851445    -5.961015366878122
O    -0.5959893980211064    -3.1296521997817366    -6.48266770304198
H    -1.2824031031032477    -3.3267975707359096    -5.782692211440103
6
converged SCF energy = -148.919090946164
H    -1.9489636055202515    -0.027305535262343847    0.7803161670015349
O    -2.736819053898122    0.03369929786649676    0.1674883253912069
H    -3.524946924724281    -0.016843198192813123    0.7809177638563548
H    0.30581665659817403    -3.054177434821341    -6.190425234921358
O    -0.5317122067102953    -3.2261151957903493    -6.709056674514771
H    -1.2144089567743763    -3.4268865100996706    -6.006481562901078
6
converged SCF energy = -148.919090474506
H    -1.9597384694712034    0.16172923906207856    0.8668473350698982
O    -2.743544959030231    0.22500006717209256    0.2490771918192128
H    -3.5356603622096685    0.17643450074488012    0.8575098786959362
H    0.3704304612881649    -3.14329528786388    -6.419850646345967
O    -0.4674333767709658    -3.322579853782419    -6.935444472872985
H    -1.146377964768978    -3.526943740349796    -6.23027399068316
6
converged SCF energy = -148.91909009646
H    -1.9705505023361167    0.3507725419371622    0.9533551234263855
O    -2.7502708504398705    0.41629962503007345    0.3306688936197187
H    -3.546336848584475    0.36972289925729945    0.934080275573083
H    0.43498140976869365    -3.2324189727458994    -6.649291389324653
O    -0.40315288683030515    -3.419046158998639    -7.161831099856857
H    -1.0783103695602874    -3.6269689939795056    -6.454069678992611
6
converged SCF energy = -148.919089790563
H    -1.9813995328348752    0.5398244787979404    1.0398393055209278
O    -2.7569967493075356    0.6075979707356408    0.41226343580717256
H    -3.5569762189514624    0.5630219030959925    1.0106291960229066
H    0.4994694883249579    -3.3215489857647604    -6.878747250709166
O    -0.3388707314951404    -3.515514091236365    -7.388216557289973
H    -1.0102064321830364    -3.726962000773806    -6.677868812033691
6
converged SCF energy = -148.91908954083
H    -1.9922853879350904    0.7288851548102655    1.1262996506236305
O    -2.7637226768144623    0.7988951036410953    0.4938608179704696
H    -3.5675783101539538    0.7563314173754084    1.0871568773003693
H    0.5638947038061404    -3.4106858385606245    -7.108218011528017
O    -0.2745868896502537    -3.611983646087477    -7.614600841782221
H    -0.9420664000531663    -3.826922508207296    -6.901671568011343
6
converged SCF energy = -148.919089324752
H    -1.9837874683909635    0.9533263575638817    1.2407820994418766
O    -2.7502129146699374    1.0258280449323658    0.6025569814142782
H    -3.5586347355617405    0.9863974131156781    1.1898347227233326
H    0.6538487594024585    -3.486364315866428    -7.334532769066559
O    -0.18451110747981464    -3.6953352167568214    -7.838000401431087
H    -0.8484326488295896    -3.913057899274349    -7.122597870609693
6
converged SCF energy = -148.919089147682
H    -1.9753418618733862    1.1777860882781954    1.3552318864296085
O    -2.73670339150599    1.252759072656927    0.7112571715025461
H    -3.549634960263081    1.2164752530716185    1.292481318980077
H    0.7437403783476306    -3.562053943186302    -7.560868515691572
O    -0.09443323569422106    -3.7786881204238107    -8.061398621312799
H    -0.7547696273763528    -3.9991609829569805    -7.3435244489377265
6
converged SCF energy = -148.919089001315
H    -1.966948266351613    1.4022645253196386    1.46964861345949
O    -2.7231941548876417    1.4796881947407157    0.8199613870633791
H    -3.5405787204845325    1.4465647276506295    1.395097082798273
H    0.8335695872227558    -3.6377552422366444    -7.7872250458157035
O    -0.00435326086427791    -3.8620423376765785    -8.284795503268093
H    -0.6610775754230578    -4.085231545644386    -7.564451479366633
6
converged SCF energy = -148.919088879343
H    -1.958606360038323    1.626761830056867    1.584031889616556
O    -2.709685236519946    1.7066154033298138    0.9286696319336869
H    -3.531465740215557    1.6766656109926579    1.4976824387678518
H    0.9233364170159064    -3.713468733909675    -8.013602152384012
O    0.0857288302907071    -3.945397849010503    -8.508191049232174
H    -0.5673567347492415    -4.171269376022171    -7.785379138235674
6
converged SCF energy = -148.91908877693
H    -1.9503158231321178    1.8512781787270418    1.6983813108083108
O    -2.69617667334512    1.9335407065912156    1.037381893799887
H    -3.522295752909823    1.9067776918083041    1.6002377972738075
H    1.013040908411701    -3.7891949381627414    -8.239999626930292
O    0.17581305619374715    -4.028754634841467    -8.731585261234486
H    -0.4736073438755429    -4.257274264972573    -8.00630760179975
6
converged SCF energy = -148.919088690329
H    -1.942076332221426    2.075813740563062    1.8126964910217878
O    -2.6826685022895775    2.1604641075298954    1.1460981759454079
H    -3.5130684958819614    2.1369007531696402    1.7027635867889483
H    1.102683090547581    -3.8649343689851876    -8.466417259281018
O    0.2658994192541703    -4.1121126701679485    -8.954978141400813
H    -0.3798296593292825    -4.343246000756488    -8.227237046491807
6
converged SCF energy = -148.919088616612
H    -1.9338875603570602    2.3003686836035704    1.926977041316905
O    -2.669160760253735    2.3873856092827976    1.2548184760842789
H    -3.503783710396891    2.3670345772483694    1.8052602325363247
H    1.192263013102065    -3.9406875552305727    -8.692854833104192
O    0.35598793756931724    -4.195471945808796    -9.178369686653419
H    -0.2860239234559163    -4.429184389392811    -8.448167642919323
6
converged SCF energy = -148.919088552615
H    -1.9194266101244668    2.5365147920781936    2.050374158115414
O    -2.6490441655239736    2.6259440889515036    1.3723945239300386
H    -3.488045983812759    2.609179392252678    1.9162609179178014
H    1.2901441534470186    -4.012062332524067    -8.918291413957371
O    0.4545022545991811    -4.274547161277554    -9.400785032796813
H    -0.1838783235357968    -4.510580301287272    -8.66814982006557
6
converged SCF energy = -148.919088497635
H    -1.9050212097119705    2.772684422938273    2.173732510012445
O    -2.6289281739030526    2.8645004226705435    1.4899750310439466
H    -3.4722430402761617    2.8513347454357203    2.027229590590534
H    1.3879632666348942    -4.083452943271872    -9.143749810329348
O    0.5530188706541541    -4.353623489316074    -9.623198965430367
H    -0.0817071866398711    -4.591942720993672    -8.888132616954852
6
converged SCF energy = -148.919088450128
H    -1.8906709714035497    3.008877771155275    2.2970516464931516
O    -2.608812839353105    3.1030546210034213    1.6075599938191367
H    -3.4563746001638447    3.0935003687363323    2.1381667583176296
H    1.4857204140302234    -4.154859912517553    -9.369229808170076
O    0.6515377974996717    -4.43270090844023    -9.845611486994402
H    0.020489239126060425    -4.673271464464998    -9.108116208904388
6
converged SCF energy = -148.919088408857
H    -1.8763754870329767    3.245095014186832    2.4203311250327686
O    -2.5886981999452225    3.3416066787668846    1.7251494135890142
H    -3.4404403728022714    3.335675977816624    2.249072937034502
H    1.583415661403896    -4.226283764141437    -9.59473119189344
O    0.7500590467368498    -4.51177939708831    -10.068022600029579
H    0.12271070385791812    -4.754566350048936    -9.328100771174869
6
converged SCF energy = -148.91908837282
H    -1.8621343497654552    3.4813363437883598    2.5435704906663013
O    -2.568584298955784    3.5801566068339747    1.8427432754719153
H    -3.4244400781425246    3.57786130291848    2.3599486287593066
H    1.681049084220244    -4.297725020753127    -9.820253744443272
O    0.8485826350934214    -4.590858933634391    -10.290432307176246
H    0.2249569611628745    -4.835827198383068    -9.548086478914756
6
converged SCF energy = -148.919088341204
H    -1.8479471485009902    3.7176019441807373    2.6667693072794623
O    -2.5484711796129305    3.8187044109468946    1.9603415801162254
H    -3.4083734411665136    3.8200560686806497    2.4707943538896133
H    1.778620746394511    -4.369184198643165    -10.045797246963208
O    0.9471085632678026    -4.6699394910507515    -10.512840611178168
H    0.32722774689144596    -4.917053827586967    -9.768073507431371
6
converged SCF energy = -148.91908831334
H    -1.8338134679514195    3.953891997833744    2.7899271366032634
O    -2.5283588850853445    4.05725009701343    2.077944322534857
H    -3.392240191988048    4.062259998864842    2.5816106298495884
H    1.87613073237284    -4.440661828635758    -10.27136147439564
O    1.0456368476307059    -4.74902105814535    -10.735247509579622
H    0.429522811335631    -4.998246073625759    -9.988062026185085
6
converged SCF energy = -148.919088288585
H    -1.8176423367812276    4.194051649830903    2.9160757036260425
O    -2.5060551451638378    4.299654124864998    2.198488299069647
H    -3.37391028925626    4.308452614600503    2.69522343584501
H    1.9763549597853367    -4.510703197048526    -10.496612699181252
O    1.1469617181147782    -4.826682076501746    -10.957329487530924
H    0.5345981503917672    -5.077906759695253    -10.207734410081494
6
converged SCF energy = -148.919088266602
H    -1.8015256566568274    4.434237480344606    3.042181144758398
O    -2.4837523594445696    4.542055962992829    2.3190368566254245
H    -3.355510695783556    4.554653807166923    2.808806657656675
H    2.0765177303173585    -4.580764405302126    -10.721884991446206
O    1.248289005211337    -4.9043440273596985    -11.179410037487271
H    0.6396965897974504    -5.157532805237026    -10.427408391668445
6
converged SCF energy = -148.919088247003
H    -1.7854629871836594    4.674449679366525    3.168243007858604
O    -2.4614505837989746    4.784455623821405    2.43958998888223
H    -3.3370411543207057    4.800863283945223    2.922360847736856
H    2.176619137421215    -4.650845972971049    -10.94717812669605
O    1.3496187193220703    -4.982006888226361    -11.401489162581875
H    0.7448178710045317    -5.237124047683555    -10.64708414571002
6
converged SCF energy = -148.919088229466
H    -1.7694538674326743    4.91468841912107    3.294260849266584
O    -2.4391498581770974    5.026853104037529    2.560147694436225
H    -3.318501397134229    5.047080736149179    3.035886566601853
H    2.2766592789255116    -4.720948418177799    -11.172491878949863
O    1.4509508706755776    -5.05967063654399    -11.623566866049561
H    0.8499617338358378    -5.316680326949394    -10.866761846843897
6
converged SCF energy = -148.91908821372
H    -1.753497837757529    5.154953885822265    3.4202342133236288
O    -2.4168502277037316    5.269248416395634    2.680709955648318
H    -3.299891167648654    5.293305869700558    3.1493843607295147
H    2.3766382623199362    -4.791072257489569    -11.397826020815945
O    1.5522854746184005    -5.137335249703336    -11.845643151225692
H    0.955127921795488    -5.396201485321869    -11.086441669522854
6
converged SCF energy = -148.919088199535
H    -1.7375944341927292    5.395246257888451    3.546162663693981
O    -2.3945517374249055    5.5116415685264535    2.8012767703868677
H    -3.281210214857866    5.539538385065866    3.262854794863527
H    2.4765561835142758    -4.861218000854857    -11.623180323128551
O    1.6536225304591317    -5.215000699706356    -12.067718021551542
H    1.060316160798763    -5.47568736266364    -11.306123788292664
6
converged SCF energy = -148.919088186717
H    -1.7217431885316083    5.635565711698933    3.6720457623541387
O    -2.372254432296066    5.75403256823601    2.9218481308630833
H    -3.2624582934345887    5.7857779819684    3.376298430651268
H    2.5764131589095736    -4.931386172477772    -11.848554550594342
O    1.7549620531699535    -5.29266697440326    -12.28979147526835
H    1.1655261913802646    -5.555137816761318    -11.52580837178723
6
converged SCF energy = -148.919088175086
H    -1.7052499815797801    5.8771943407421094    3.798890902476849
O    -2.349228749662322    5.997706167596836    3.04340165271642
H    -3.242923402463858    6.033348480031929    3.4906546613980454
H    2.677133699369964    -5.00109359383805    -12.073839193096617
O    1.8572340249274106    -5.3698609109542685    -12.511755795125412
H    1.2716747753219544    -5.634054020478507    -11.74538895950558
6
converged SCF energy = -148.919088164515
H    -1.6888085372884847    6.118850871440275    3.925689359048786
O    -2.3262043567265405    6.241377603691181    3.164959755376527
H    -3.223316184141353    6.280925411857531    3.6049848690214628
H    2.7777935468683643    -5.070824583310023    -12.299143563839436
O    1.959508495167571    -5.447055611593946    -12.73371869908764
H    1.3778443962486808    -5.71293452845045    -11.964972292099853
6
converged SCF energy = -148.919088154883
H    -1.6724183771727437    6.360535481074735    4.0524406975150455
O    -2.3031813095035814    6.4850468904255685    3.2865224298157956
H    -3.2036364170318086    6.52850847401379    3.7192896313628614
H    2.8783928257853666    -5.140579650660759    -12.52446742811197
O    2.061785473000255    -5.524251053241819    -12.955680190997438
H    1.4840347851885682    -5.791779197243907    -12.184558543294258
6
converged SCF energy = -148.919088146082
H    -1.6560790023647596    6.602248329022295    4.179144492161841
O    -2.280159648058436    6.728714025968355    3.408089671916833
H    -3.183883869516059    6.77609734704676    3.8335695340618487